<event>
 4    0  0.1075621E-001  0.2463131E+03  0.7546771E-02  0.1115657E+00
         21   -1    0    0  501  502  0.00000000000E+00  0.00000000000E+00  0.80467701205E+03  0.80467701205E+03  0.00000000000E+00 0.  1.
          1   -1    0    0  502    0 -0.00000000000E+00 -0.00000000000E+00 -0.65937325661E+02  0.65937325661E+02  0.00000000000E+00 0.  1.
         25    1    1    2    0    0 -0.21216502690E+03 -0.55802871780E+01  0.43831939219E+03  0.50278626454E+03  0.12500000000E+03 0.  0.
          1    1    1    2  501    0  0.21216502690E+03  0.55802871780E+01  0.30042029420E+03  0.36782807317E+03  0.00000000000E+00 0.  1.
<mgrwt>
<rscale>  3 0.24631309E+03</rscale>
<asrwt>0</asrwt>
<pdfrwt beam="1">  1       21 0.12379646E+00 0.24631309E+03</pdfrwt>
<pdfrwt beam="2">  1        1 0.10144205E-01 0.24631309E+03</pdfrwt>
<totfact> 0.32119566E+03</totfact>
</mgrwt>
</event>
<event>
 4    0  0.1692702E-001  0.3721474E+03  0.7546771E-02  0.1053875E+00
         -2   -1    0    0    0  501 -0.00000000000E+00  0.00000000000E+00  0.16257181126E+04  0.16257181126E+04  0.00000000000E+00 0.  1.
         21   -1    0    0  501  502  0.00000000000E+00 -0.00000000000E+00 -0.11362454789E+03  0.11362454789E+03  0.00000000000E+00 0.  1.
         25    1    1    2    0    0  0.34336145140E+03  0.70509643996E+02  0.30128833888E+03  0.47881975664E+03  0.12500000000E+03 0.  0.
         -2    1    1    2    0  502 -0.34336145140E+03 -0.70509643996E+02  0.12108052258E+04  0.12605229038E+04  0.00000000000E+00 0.  1.
<mgrwt>
<rscale>  3 0.37214741E+03</rscale>
<asrwt>0</asrwt>
<pdfrwt beam="1">  1       21 0.17480701E-01 0.37214741E+03</pdfrwt>
<pdfrwt beam="2">  1       -2 0.25011046E+00 0.37214741E+03</pdfrwt>
<totfact> 0.16595592E+02</totfact>
</mgrwt>
</event>
<event>
 4    0  0.1002184E-001  0.2622459E+03  0.7546771E-02  0.1105801E+00
          2   -1    0    0  502    0 -0.00000000000E+00  0.00000000000E+00  0.22739240727E+04  0.22739240727E+04  0.00000000000E+00 0.  1.
         21   -1    0    0  501  502  0.00000000000E+00 -0.00000000000E+00 -0.30401052040E+02  0.30401052040E+02  0.00000000000E+00 0. -1.
         25    1    1    2    0    0 -0.21697539982E+03 -0.77907591592E+02  0.78376182201E+03  0.82647172402E+03  0.12500000000E+03 0.  0.
          2    1    1    2  501    0  0.21697539982E+03  0.77907591592E+02  0.14597611987E+04  0.14778534007E+04  0.00000000000E+00 0.  1.
<mgrwt>
<rscale>  3 0.26224591E+03</rscale>
<asrwt>0</asrwt>
<pdfrwt beam="1">  1       21 0.46770867E-02 0.26224591E+03</pdfrwt>
<pdfrwt beam="2">  1        2 0.34983434E+00 0.26224591E+03</pdfrwt>
<totfact> 0.20383981E+04</totfact>
</mgrwt>
</event>
<event>
 4    0  0.1486975E-001  0.2977104E+03  0.7546771E-02  0.1086391E+00
          2   -1    0    0  502    0 -0.00000000000E+00  0.00000000000E+00  0.58511159471E+03  0.58511159471E+03  0.00000000000E+00 0. -1.
         21   -1    0    0  501  502  0.00000000000E+00 -0.00000000000E+00 -0.13861090529E+03  0.13861090529E+03  0.00000000000E+00 0. -1.
         25    1    1    2    0    0  0.14638952894E+03  0.22710473313E+03  0.26160949652E+03  0.39632181704E+03  0.12500000000E+03 0.  0.
          2    1    1    2  501    0 -0.14638952894E+03 -0.22710473313E+03  0.18489119290E+03  0.32740068297E+03  0.00000000000E+00 0. -1.
<mgrwt>
<rscale>  3 0.29771035E+03</rscale>
<asrwt>0</asrwt>
<pdfrwt beam="1">  1       21 0.21324755E-01 0.29771035E+03</pdfrwt>
<pdfrwt beam="2">  1        2 0.90017167E-01 0.29771035E+03</pdfrwt>
<totfact> 0.13096845E+04</totfact>
</mgrwt>
</event>
<event>
 4    0  0.1319632E-001  0.3595968E+03  0.7546771E-02  0.1058744E+00
          2   -1    0    0  502    0 -0.00000000000E+00  0.00000000000E+00  0.21933697747E+04  0.21933697747E+04  0.00000000000E+00 0.  1.
         21   -1    0    0  501  502  0.00000000000E+00 -0.00000000000E+00 -0.72682908938E+02  0.72682908938E+02  0.00000000000E+00 0.  1.
         25    1    1    2    0    0 -0.28762843876E+03 -0.17593958528E+03  0.53301620588E+03  0.64297444132E+03  0.12500000000E+03 0.  0.
          2    1    1    2  501    0  0.28762843876E+03  0.17593958528E+03  0.15876706599E+04  0.16230782423E+04  0.00000000000E+00 0.  1.
<mgrwt>
<rscale>  3 0.35959680E+03</rscale>
<asrwt>0</asrwt>
<pdfrwt beam="1">  1       21 0.11181988E-01 0.35959680E+03</pdfrwt>
<pdfrwt beam="2">  1        2 0.33744145E+00 0.35959680E+03</pdfrwt>
<totfact> 0.47614661E+03</totfact>
</mgrwt>
</event>
<event>
 4    0  0.1092186E-001  0.2426278E+03  0.7546771E-02  0.1118055E+00
         21   -1    0    0  501  502  0.00000000000E+00  0.00000000000E+00  0.42448287519E+03  0.42448287519E+03  0.00000000000E+00 0. -1.
          1   -1    0    0  502    0 -0.00000000000E+00 -0.00000000000E+00 -0.18398602685E+03  0.18398602685E+03  0.00000000000E+00 0. -1.
         25    1    1    2    0    0  0.14964423258E+03  0.14439482838E+03  0.30593375087E+03  0.39046603274E+03  0.12500000000E+03 0.  0.
          1    1    1    2  501    0 -0.14964423258E+03 -0.14439482838E+03 -0.65436902530E+02  0.21800286929E+03  0.00000000000E+00 0. -1.
<mgrwt>
<rscale>  3 0.24262783E+03</rscale>
<asrwt>0</asrwt>
<pdfrwt beam="1">  1       21 0.65305058E-01 0.24262783E+03</pdfrwt>
<pdfrwt beam="2">  1        1 0.28305543E-01 0.24262783E+03</pdfrwt>
<totfact> 0.37546566E+03</totfact>
</mgrwt>
</event>
<event>
 4    0  0.1002184E-001  0.2531010E+03  0.7546771E-02  0.1111361E+00
          2   -1    0    0  502    0 -0.00000000000E+00  0.00000000000E+00  0.12641869946E+04  0.12641869946E+04  0.00000000000E+00 0. -1.
         21   -1    0    0  501  502  0.00000000000E+00 -0.00000000000E+00 -0.51675805697E+02  0.51675805697E+02  0.00000000000E+00 0.  1.
         25    1    1    2    0    0  0.14914348469E+03  0.16183734618E+03  0.39408101610E+03  0.46835878650E+03  0.12500000000E+03 0.  0.
          2    1    1    2  501    0 -0.14914348469E+03 -0.16183734618E+03  0.81843017285E+03  0.84750401384E+03  0.00000000000E+00 0. -1.
<mgrwt>
<rscale>  3 0.25310098E+03</rscale>
<asrwt>0</asrwt>
<pdfrwt beam="1">  1       21 0.79501249E-02 0.25310098E+03</pdfrwt>
<pdfrwt beam="2">  1        2 0.19449028E+00 0.25310098E+03</pdfrwt>
<totfact> 0.28180092E+04</totfact>
</mgrwt>
</event>
<event>
 4    0  0.1002184E-001  0.2988617E+03  0.7546771E-02  0.1085811E+00
          2   -1    0    0  502    0 -0.00000000000E+00  0.00000000000E+00  0.48300133399E+04  0.48300133399E+04  0.00000000000E+00 0. -1.
         21   -1    0    0  501  502  0.00000000000E+00 -0.00000000000E+00 -0.17675228336E+03  0.17675228336E+03  0.00000000000E+00 0. -1.
         25    1    1    2    0    0 -0.15016448544E+02 -0.27104943459E+03 -0.43635799146E+02  0.30203041682E+03  0.12500000000E+03 0.  0.
          2    1    1    2  501    0  0.15016448544E+02  0.27104943459E+03  0.46968968557E+04  0.47047352065E+04  0.00000000000E+00 0. -1.
<mgrwt>
<rscale>  3 0.29886166E+03</rscale>
<asrwt>0</asrwt>
<pdfrwt beam="1">  1       21 0.27192663E-01 0.29886166E+03</pdfrwt>
<pdfrwt beam="2">  1        2 0.74307887E+00 0.29886166E+03</pdfrwt>
<totfact> 0.12329107E+01</totfact>
</mgrwt>
</event>
<event>
 4    0  0.1390414E-001  0.2550761E+03  0.7546771E-02  0.1110138E+00
          2   -1    0    0  502    0 -0.00000000000E+00  0.00000000000E+00  0.26978797747E+04  0.26978797747E+04  0.00000000000E+00 0. -1.
         21   -1    0    0  501  502  0.00000000000E+00 -0.00000000000E+00 -0.27916814034E+02  0.27916814034E+02  0.00000000000E+00 0. -1.
         25    1    1    2    0    0 -0.50906786239E+02 -0.21644238248E+03  0.73300931321E+03  0.77612270877E+03  0.12500000000E+03 0.  0.
          2    1    1    2  501    0  0.50906786239E+02  0.21644238248E+03  0.19369536475E+04  0.19496738800E+04  0.00000000000E+00 0. -1.
<mgrwt>
<rscale>  3 0.25507608E+03</rscale>
<asrwt>0</asrwt>
<pdfrwt beam="1">  1       21 0.42948966E-02 0.25507608E+03</pdfrwt>
<pdfrwt beam="2">  1        2 0.41505822E+00 0.25507608E+03</pdfrwt>
<totfact> 0.13843460E+04</totfact>
</mgrwt>
</event>
<event>
 4    0  0.1025330E-001  0.3074312E+03  0.7546771E-02  0.1081584E+00
         21   -1    0    0  501  502  0.00000000000E+00  0.00000000000E+00  0.99415887876E+02  0.99415887876E+02  0.00000000000E+00 0. -1.
          4   -1    0    0  502    0 -0.00000000000E+00 -0.00000000000E+00 -0.11610545695E+04  0.11610545695E+04  0.00000000000E+00 0.  1.
         25    1    1    2    0    0  0.25083377539E+03  0.12637774680E+03 -0.23365881965E+03  0.38614810859E+03  0.12500000000E+03 0.  0.
          4    1    1    2  501    0 -0.25083377539E+03 -0.12637774680E+03 -0.82797986202E+03  0.87432234883E+03  0.00000000000E+00 0.  1.
<mgrwt>
<rscale>  3 0.30743116E+03</rscale>
<asrwt>0</asrwt>
<pdfrwt beam="1">  1       21 0.15294752E-01 0.30743116E+03</pdfrwt>
<pdfrwt beam="2">  1        4 0.17862378E+00 0.30743116E+03</pdfrwt>
<totfact> 0.31355982E+02</totfact>
</mgrwt>
</event>
<event>
 4    0  0.1487479E-001  0.2955479E+03  0.7546771E-02  0.1087488E+00
          2   -1    0    0  502    0 -0.00000000000E+00  0.00000000000E+00  0.70515892981E+03  0.70515892981E+03  0.00000000000E+00 0.  1.
         21   -1    0    0  501  502  0.00000000000E+00 -0.00000000000E+00 -0.32887048142E+03  0.32887048142E+03  0.00000000000E+00 0. -1.
         25    1    1    2    0    0  0.19710032687E+03 -0.18131464079E+03 -0.22785676840E+03  0.37318526864E+03  0.12500000000E+03 0.  0.
          2    1    1    2  501    0 -0.19710032687E+03  0.18131464079E+03  0.60414521680E+03  0.66084414259E+03  0.00000000000E+00 0.  1.
<mgrwt>
<rscale>  3 0.29554786E+03</rscale>
<asrwt>0</asrwt>
<pdfrwt beam="1">  1       21 0.50595459E-01 0.29554786E+03</pdfrwt>
<pdfrwt beam="2">  1        2 0.10848599E+00 0.29554786E+03</pdfrwt>
<totfact> 0.18712982E+03</totfact>
</mgrwt>
</event>
<event>
 4    0  0.1002184E-001  0.2511269E+03  0.7546771E-02  0.1112595E+00
          1   -1    0    0  502    0 -0.00000000000E+00  0.00000000000E+00  0.16030750814E+03  0.16030750814E+03  0.00000000000E+00 0. -1.
         21   -1    0    0  501  502  0.00000000000E+00 -0.00000000000E+00 -0.88745053647E+03  0.88745053647E+03  0.00000000000E+00 0.  1.
         25    1    1    2    0    0 -0.18248836336E+03  0.11890217674E+03 -0.78351380401E+03  0.82277494582E+03  0.12500000000E+03 0.  0.
          1    1    1    2  501    0  0.18248836336E+03 -0.11890217674E+03  0.56370775678E+02  0.22498309880E+03  0.00000000000E+00 0. -1.
<mgrwt>
<rscale>  3 0.25112692E+03</rscale>
<asrwt>0</asrwt>
<pdfrwt beam="1">  1       21 0.13653085E+00 0.25112692E+03</pdfrwt>
<pdfrwt beam="2">  1        1 0.24662694E-01 0.25112692E+03</pdfrwt>
<totfact> 0.77923640E+02</totfact>
</mgrwt>
</event>
<event>
 4    0  0.1465639E-001  0.3210112E+03  0.7546771E-02  0.1075185E+00
          2   -1    0    0  502    0 -0.00000000000E+00  0.00000000000E+00  0.15103624951E+04  0.15103624951E+04  0.00000000000E+00 0.  1.
         21   -1    0    0  501  502  0.00000000000E+00 -0.00000000000E+00 -0.70546006156E+02  0.70546006156E+02  0.00000000000E+00 0.  1.
         25    1    1    2    0    0  0.81344504208E+02  0.28426445572E+03  0.10055072723E+04  0.10555060795E+04  0.12500000000E+03 0.  0.
          2    1    1    2  501    0 -0.81344504208E+02 -0.28426445572E+03  0.43430921660E+03  0.52540242174E+03  0.00000000000E+00 0.  1.
<mgrwt>
<rscale>  3 0.32101123E+03</rscale>
<asrwt>0</asrwt>
<pdfrwt beam="1">  1       21 0.10853233E-01 0.32101123E+03</pdfrwt>
<pdfrwt beam="2">  1        2 0.23236344E+00 0.32101123E+03</pdfrwt>
<totfact> 0.11729964E+04</totfact>
</mgrwt>
</event>
<event>
 4    0  0.1002184E-001  0.4170953E+03  0.7546771E-02  0.1038016E+00
         21   -1    0    0  501  502  0.00000000000E+00  0.00000000000E+00  0.16470754109E+03  0.16470754109E+03  0.00000000000E+00 0.  1.
          2   -1    0    0  502    0 -0.00000000000E+00 -0.00000000000E+00 -0.13262157400E+04  0.13262157400E+04  0.00000000000E+00 0. -1.
         25    1    1    2    0    0  0.26793320040E+03  0.29420286643E+03 -0.22619548263E+03  0.47448174133E+03  0.12500000000E+03 0.  0.
          2    1    1    2  501    0 -0.26793320040E+03 -0.29420286643E+03 -0.93531271632E+03  0.10164415398E+04  0.00000000000E+00 0. -1.
<mgrwt>
<rscale>  3 0.41709534E+03</rscale>
<asrwt>0</asrwt>
<pdfrwt beam="1">  1       21 0.25339623E-01 0.41709534E+03</pdfrwt>
<pdfrwt beam="2">  1        2 0.20403318E+00 0.41709534E+03</pdfrwt>
<totfact> 0.29777626E+03</totfact>
</mgrwt>
</event>
<event>
 4    0  0.1392953E-001  0.2675392E+03  0.7546771E-02  0.1102696E+00
         21   -1    0    0  501  502  0.00000000000E+00  0.00000000000E+00  0.19234737286E+03  0.19234737286E+03  0.00000000000E+00 0. -1.
          2   -1    0    0  502    0 -0.00000000000E+00 -0.00000000000E+00 -0.37035102817E+03  0.37035102817E+03  0.00000000000E+00 0. -1.
         25    1    1    2    0    0  0.11530730191E+03  0.20653432448E+03 -0.18629528884E+03  0.32601094415E+03  0.12500000000E+03 0.  0.
          2    1    1    2  501    0 -0.11530730191E+03 -0.20653432448E+03  0.82916335272E+01  0.23668745689E+03  0.00000000000E+00 0. -1.
<mgrwt>
<rscale>  3 0.26753916E+03</rscale>
<asrwt>0</asrwt>
<pdfrwt beam="1">  1       21 0.29591904E-01 0.26753916E+03</pdfrwt>
<pdfrwt beam="2">  1        2 0.56977081E-01 0.26753916E+03</pdfrwt>
<totfact> 0.11669461E+04</totfact>
</mgrwt>
</event>
<event>
 4    0  0.1002184E-001  0.2639963E+03  0.7546771E-02  0.1104766E+00
         21   -1    0    0  501  502  0.00000000000E+00  0.00000000000E+00  0.48553776287E+03  0.48553776287E+03  0.00000000000E+00 0.  1.
          3   -1    0    0  502    0 -0.00000000000E+00 -0.00000000000E+00 -0.15520010577E+03  0.15520010577E+03  0.00000000000E+00 0. -1.
         25    1    1    2    0    0 -0.13207290601E+02  0.23215215493E+03  0.31021409188E+03  0.40734118177E+03  0.12500000000E+03 0.  0.
          3    1    1    2  501    0  0.13207290601E+02 -0.23215215493E+03  0.20123565218E+02  0.23339668687E+03  0.00000000000E+00 0. -1.
<mgrwt>
<rscale>  3 0.26399632E+03</rscale>
<asrwt>0</asrwt>
<pdfrwt beam="1">  1       21 0.74698117E-01 0.26399632E+03</pdfrwt>
<pdfrwt beam="2">  1        3 0.23876940E-01 0.26399632E+03</pdfrwt>
<totfact> 0.12811479E+03</totfact>
</mgrwt>
</event>
<event>
 4    0  0.1570048E-001  0.3445066E+03  0.7546771E-02  0.1064893E+00
         21   -1    0    0  501  502  0.00000000000E+00  0.00000000000E+00  0.33707878646E+03  0.33707878646E+03  0.00000000000E+00 0.  1.
         -4   -1    0    0    0  501 -0.00000000000E+00 -0.00000000000E+00 -0.33465261357E+03  0.33465261357E+03  0.00000000000E+00 0.  1.
         25    1    1    2    0    0  0.17149890093E+03 -0.27138153167E+03  0.46722476488E+02  0.34766046448E+03  0.12500000000E+03 0.  0.
         -4    1    1    2    0  502 -0.17149890093E+03  0.27138153167E+03 -0.44296303601E+02  0.32407093555E+03  0.00000000000E+00 0.  1.
<mgrwt>
<rscale>  3 0.34450662E+03</rscale>
<asrwt>0</asrwt>
<pdfrwt beam="1">  1       21 0.51858275E-01 0.34450662E+03</pdfrwt>
<pdfrwt beam="2">  1       -4 0.51485017E-01 0.34450662E+03</pdfrwt>
<totfact> 0.53628145E+02</totfact>
</mgrwt>
</event>
<event>
 4    0  0.1279132E-001  0.3121421E+03  0.7546771E-02  0.1079324E+00
          2   -1    0    0  502    0 -0.00000000000E+00  0.00000000000E+00  0.36750664272E+03  0.36750664272E+03  0.00000000000E+00 0.  1.
         21   -1    0    0  501  502  0.00000000000E+00 -0.00000000000E+00 -0.26300624330E+03  0.26300624330E+03  0.00000000000E+00 0.  1.
         25    1    1    2    0    0 -0.21817875830E+03  0.18494786774E+03 -0.31646462868E+02  0.31374222376E+03  0.12500000000E+03 0.  0.
          2    1    1    2  501    0  0.21817875830E+03 -0.18494786774E+03  0.13614686228E+03  0.31677066226E+03  0.00000000000E+00 0.  1.
<mgrwt>
<rscale>  3 0.31214209E+03</rscale>
<asrwt>0</asrwt>
<pdfrwt beam="1">  1       21 0.40462499E-01 0.31214209E+03</pdfrwt>
<pdfrwt beam="2">  1        2 0.56539484E-01 0.31214209E+03</pdfrwt>
<totfact> 0.62399062E+03</totfact>
</mgrwt>
</event>
<event>
 4    0  0.1621780E-001  0.2680859E+03  0.7546771E-02  0.1102380E+00
         21   -1    0    0  501  502  0.00000000000E+00  0.00000000000E+00  0.32943545580E+03  0.32943545580E+03  0.00000000000E+00 0.  1.
          2   -1    0    0  502    0 -0.00000000000E+00 -0.00000000000E+00 -0.14520047365E+04  0.14520047365E+04  0.00000000000E+00 0.  1.
         25    1    1    2    0    0  0.23276951284E+03 -0.45424731857E+02  0.26310025782E+03  0.37562188173E+03  0.12500000000E+03 0.  0.
          2    1    1    2  501    0 -0.23276951284E+03  0.45424731857E+02 -0.13856695386E+04  0.14058183106E+04  0.00000000000E+00 0.  1.
<mgrwt>
<rscale>  3 0.26808590E+03</rscale>
<asrwt>0</asrwt>
<pdfrwt beam="1">  1       21 0.50682378E-01 0.26808590E+03</pdfrwt>
<pdfrwt beam="2">  1        2 0.22338534E+00 0.26808590E+03</pdfrwt>
<totfact> 0.65873974E+02</totfact>
</mgrwt>
</event>
<event>
 4    0  0.1390491E-001  0.3590844E+03  0.7546771E-02  0.1058947E+00
          2   -1    0    0  502    0 -0.00000000000E+00  0.00000000000E+00  0.15996621720E+04  0.15996621720E+04  0.00000000000E+00 0. -1.
         21   -1    0    0  501  502  0.00000000000E+00 -0.00000000000E+00 -0.15430709279E+03  0.15430709279E+03  0.00000000000E+00 0. -1.
         25    1    1    2    0    0  0.31101968011E+03  0.12877653222E+03  0.10811054128E+03  0.37500603435E+03  0.12500000000E+03 0.  0.
          2    1    1    2  501    0 -0.31101968011E+03 -0.12877653222E+03  0.13372445380E+04  0.13789632305E+04  0.00000000000E+00 0. -1.
<mgrwt>
<rscale>  3 0.35908444E+03</rscale>
<asrwt>0</asrwt>
<pdfrwt beam="1">  1       21 0.23739554E-01 0.35908444E+03</pdfrwt>
<pdfrwt beam="2">  1        2 0.24610186E+00 0.35908444E+03</pdfrwt>
<totfact> 0.24304683E+03</totfact>
</mgrwt>
</event>
<event>
 4    0  0.1483213E-001  0.2745265E+03  0.7546771E-02  0.1098717E+00
         21   -1    0    0  501  502  0.00000000000E+00  0.00000000000E+00  0.11357156166E+03  0.11357156166E+03  0.00000000000E+00 0.  1.
          1   -1    0    0  502    0 -0.00000000000E+00 -0.00000000000E+00 -0.59413777111E+03  0.59413777111E+03  0.00000000000E+00 0.  1.
         25    1    1    2    0    0  0.20763509091E+03  0.12894763682E+03 -0.27093025483E+03  0.38570458515E+03  0.12500000000E+03 0.  0.
          1    1    1    2  501    0 -0.20763509091E+03 -0.12894763682E+03 -0.20963595462E+03  0.32200474762E+03  0.00000000000E+00 0.  1.
<mgrwt>
<rscale>  3 0.27452655E+03</rscale>
<asrwt>0</asrwt>
<pdfrwt beam="1">  1       21 0.17472548E-01 0.27452655E+03</pdfrwt>
<pdfrwt beam="2">  1        1 0.91405808E-01 0.27452655E+03</pdfrwt>
<totfact> 0.11541369E+04</totfact>
</mgrwt>
</event>
<event>
 4    0  0.1002184E-001  0.2534930E+03  0.7546771E-02  0.1111117E+00
         21   -1    0    0  501  502  0.00000000000E+00  0.00000000000E+00  0.14298204228E+04  0.14298204228E+04  0.00000000000E+00 0. -1.
          2   -1    0    0  502    0 -0.00000000000E+00 -0.00000000000E+00 -0.32371861022E+03  0.32371861022E+03  0.00000000000E+00 0. -1.
         25    1    1    2    0    0  0.67929532099E+01  0.22042589747E+03  0.13793220573E+04  0.14024222111E+04  0.12500000000E+03 0.  0.
          2    1    1    2  501    0 -0.67929532099E+01 -0.22042589747E+03 -0.27322024473E+03  0.35111682190E+03  0.00000000000E+00 0. -1.
<mgrwt>
<rscale>  3 0.25349304E+03</rscale>
<asrwt>0</asrwt>
<pdfrwt beam="1">  1       21 0.21997237E+00 0.25349304E+03</pdfrwt>
<pdfrwt beam="2">  1        2 0.49802864E-01 0.25349304E+03</pdfrwt>
<totfact> 0.11945331E+02</totfact>
</mgrwt>
</event>
<event>
 4    0  0.1799610E-001  0.3563650E+03  0.7546771E-02  0.1060032E+00
         21   -1    0    0  501  502  0.00000000000E+00  0.00000000000E+00  0.38380217177E+03  0.38380217177E+03  0.00000000000E+00 0.  1.
          2   -1    0    0  502    0 -0.00000000000E+00 -0.00000000000E+00 -0.10415568487E+04  0.10415568487E+04  0.00000000000E+00 0. -1.
         25    1    1    2    0    0  0.33370507965E+03  0.34573051203E+01  0.26501007208E+03  0.44410175799E+03  0.12500000000E+03 0.  0.
          2    1    1    2  501    0 -0.33370507965E+03 -0.34573051203E+01 -0.92276474904E+03  0.98125726250E+03  0.00000000000E+00 0. -1.
<mgrwt>
<rscale>  3 0.35636503E+03</rscale>
<asrwt>0</asrwt>
<pdfrwt beam="1">  1       21 0.59046488E-01 0.35636503E+03</pdfrwt>
<pdfrwt beam="2">  1        2 0.16023952E+00 0.35636503E+03</pdfrwt>
<totfact> 0.78388003E+02</totfact>
</mgrwt>
</event>
<event>
 4    0  0.1311348E-001  0.3420534E+03  0.7546771E-02  0.1065925E+00
          2   -1    0    0  502    0 -0.00000000000E+00  0.00000000000E+00  0.26972338656E+04  0.26972338656E+04  0.00000000000E+00 0.  1.
         21   -1    0    0  501  502  0.00000000000E+00 -0.00000000000E+00 -0.18536112567E+03  0.18536112567E+03  0.00000000000E+00 0. -1.
         25    1    1    2    0    0  0.23657305426E+03  0.21309327220E+03 -0.85310739434E+01  0.34215980460E+03  0.12500000000E+03 0.  0.
          2    1    1    2  501    0 -0.23657305426E+03 -0.21309327220E+03  0.25204038139E+04  0.25404351867E+04  0.00000000000E+00 0.  1.
<mgrwt>
<rscale>  3 0.34205344E+03</rscale>
<asrwt>0</asrwt>
<pdfrwt beam="1">  1       21 0.28517098E-01 0.34205344E+03</pdfrwt>
<pdfrwt beam="2">  1        2 0.41495903E+00 0.34205344E+03</pdfrwt>
<totfact> 0.43661177E+02</totfact>
</mgrwt>
</event>
<event>
 4    0  0.1267091E-001  0.2741544E+03  0.7546771E-02  0.1098925E+00
         21   -1    0    0  501  502  0.00000000000E+00  0.00000000000E+00  0.17367139936E+03  0.17367139936E+03  0.00000000000E+00 0.  1.
          2   -1    0    0  502    0 -0.00000000000E+00 -0.00000000000E+00 -0.70926792321E+03  0.70926792321E+03  0.00000000000E+00 0. -1.
         25    1    1    2    0    0 -0.24097482425E+03  0.38298573406E+02  0.21253974984E+02  0.27497705014E+03  0.12500000000E+03 0.  0.
          2    1    1    2  501    0  0.24097482425E+03 -0.38298573406E+02 -0.55685049884E+03  0.60796227243E+03  0.00000000000E+00 0. -1.
<mgrwt>
<rscale>  3 0.27415442E+03</rscale>
<asrwt>0</asrwt>
<pdfrwt beam="1">  1       21 0.26718677E-01 0.27415442E+03</pdfrwt>
<pdfrwt beam="2">  1        2 0.10911814E+00 0.27415442E+03</pdfrwt>
<totfact> 0.67864141E+03</totfact>
</mgrwt>
</event>
<event>
 4    0  0.1002184E-001  0.2804583E+03  0.7546771E-02  0.1095439E+00
          2   -1    0    0  502    0 -0.00000000000E+00  0.00000000000E+00  0.28159251304E+04  0.28159251304E+04  0.00000000000E+00 0.  1.
         21   -1    0    0  501  502  0.00000000000E+00 -0.00000000000E+00 -0.32280574097E+02  0.32280574097E+02  0.00000000000E+00 0. -1.
         25    1    1    2    0    0 -0.16287892610E+03 -0.19105579828E+03  0.77991853431E+03  0.82881227234E+03  0.12500000000E+03 0.  0.
          2    1    1    2  501    0  0.16287892610E+03  0.19105579828E+03  0.20037260220E+04  0.20193934321E+04  0.00000000000E+00 0.  1.
<mgrwt>
<rscale>  3 0.28045831E+03</rscale>
<asrwt>0</asrwt>
<pdfrwt beam="1">  1       21 0.49662444E-02 0.28045831E+03</pdfrwt>
<pdfrwt beam="2">  1        2 0.43321906E+00 0.28045831E+03</pdfrwt>
<totfact> 0.91802827E+03</totfact>
</mgrwt>
</event>
<event>
 4    0  0.1241437E-001  0.2590510E+03  0.7546771E-02  0.1107715E+00
         21   -1    0    0  501  502  0.00000000000E+00  0.00000000000E+00  0.34120515621E+03  0.34120515621E+03  0.00000000000E+00 0. -1.
          1   -1    0    0  502    0 -0.00000000000E+00 -0.00000000000E+00 -0.33493285981E+03  0.33493285981E+03  0.00000000000E+00 0. -1.
         25    1    1    2    0    0  0.44924738804E+02  0.22240548611E+03  0.23802867335E+03  0.35180261760E+03  0.12500000000E+03 0.  0.
          1    1    1    2  501    0 -0.44924738804E+02 -0.22240548611E+03 -0.23175637696E+03  0.32433539843E+03  0.00000000000E+00 0. -1.
<mgrwt>
<rscale>  3 0.25905102E+03</rscale>
<asrwt>0</asrwt>
<pdfrwt beam="1">  1       21 0.52493101E-01 0.25905102E+03</pdfrwt>
<pdfrwt beam="2">  1        1 0.51528132E-01 0.25905102E+03</pdfrwt>
<totfact> 0.28082894E+03</totfact>
</mgrwt>
</event>
<event>
 4    0  0.1002184E-001  0.5603252E+03  0.7546771E-02  0.9991319E-01
          1   -1    0    0  502    0 -0.00000000000E+00  0.00000000000E+00  0.47497551115E+04  0.47497551115E+04  0.00000000000E+00 0. -1.
         21   -1    0    0  501  502  0.00000000000E+00 -0.00000000000E+00 -0.19570551039E+03  0.19570551039E+03  0.00000000000E+00 0.  1.
         25    1    1    2    0    0  0.38825997911E+01 -0.54619069838E+03  0.26157397144E+03  0.61837310429E+03  0.12500000000E+03 0.  0.
          1    1    1    2  501    0 -0.38825997911E+01  0.54619069838E+03  0.42924756297E+04  0.43270875176E+04  0.00000000000E+00 0. -1.
<mgrwt>
<rscale>  3 0.56032522E+03</rscale>
<asrwt>0</asrwt>
<pdfrwt beam="1">  1       21 0.30108544E-01 0.56032522E+03</pdfrwt>
<pdfrwt beam="2">  1        1 0.73073147E+00 0.56032522E+03</pdfrwt>
<totfact> 0.23183543E+00</totfact>
</mgrwt>
</event>
<event>
 4    0  0.1508428E-001  0.2540013E+03  0.7546771E-02  0.1110802E+00
          2   -1    0    0  502    0 -0.00000000000E+00  0.00000000000E+00  0.57556977699E+03  0.57556977699E+03  0.00000000000E+00 0.  1.
         21   -1    0    0  501  502  0.00000000000E+00 -0.00000000000E+00 -0.98755936003E+02  0.98755936003E+02  0.00000000000E+00 0.  1.
         25    1    1    2    0    0 -0.72591890438E+02 -0.20885900354E+03  0.28325844554E+03  0.38046289292E+03  0.12500000000E+03 0.  0.
          2    1    1    2  501    0  0.72591890438E+02  0.20885900354E+03  0.19355539545E+03  0.29386282008E+03  0.00000000000E+00 0.  1.
<mgrwt>
<rscale>  3 0.25400131E+03</rscale>
<asrwt>0</asrwt>
<pdfrwt beam="1">  1       21 0.15193221E-01 0.25400131E+03</pdfrwt>
<pdfrwt beam="2">  1        2 0.88549194E-01 0.25400131E+03</pdfrwt>
<totfact> 0.25281205E+04</totfact>
</mgrwt>
</event>
<event>
 4    0  0.1643923E-001  0.2877693E+03  0.7546771E-02  0.1091520E+00
          2   -1    0    0  502    0 -0.00000000000E+00  0.00000000000E+00  0.18813299605E+04  0.18813299605E+04  0.00000000000E+00 0.  1.
         21   -1    0    0  501  502  0.00000000000E+00 -0.00000000000E+00 -0.49236605777E+02  0.49236605777E+02  0.00000000000E+00 0.  1.
         25    1    1    2    0    0 -0.24323342300E+03 -0.89575055357E+02  0.53157610111E+03  0.60447029694E+03  0.12500000000E+03 0.  0.
          2    1    1    2  501    0  0.24323342300E+03  0.89575055357E+02  0.13005172536E+04  0.13260962693E+04  0.00000000000E+00 0.  1.
<mgrwt>
<rscale>  3 0.28776933E+03</rscale>
<asrwt>0</asrwt>
<pdfrwt beam="1">  1       21 0.75748639E-02 0.28776933E+03</pdfrwt>
<pdfrwt beam="2">  1        2 0.28943532E+00 0.28776933E+03</pdfrwt>
<totfact> 0.14216072E+04</totfact>
</mgrwt>
</event>
<event>
 4    0  0.1057835E-001  0.2431292E+03  0.7546771E-02  0.1117726E+00
          3   -1    0    0  502    0 -0.00000000000E+00  0.00000000000E+00  0.11816680380E+03  0.11816680380E+03  0.00000000000E+00 0. -1.
         21   -1    0    0  501  502  0.00000000000E+00 -0.00000000000E+00 -0.77044266932E+03  0.77044266932E+03  0.00000000000E+00 0. -1.
         25    1    1    2    0    0 -0.20627750414E+03 -0.30600897796E+02 -0.63430156216E+03  0.67930132888E+03  0.12500000000E+03 0.  0.
          3    1    1    2  501    0  0.20627750414E+03  0.30600897796E+02 -0.17974303367E+02  0.20930814424E+03  0.00000000000E+00 0. -1.
<mgrwt>
<rscale>  3 0.24312923E+03</rscale>
<asrwt>0</asrwt>
<pdfrwt beam="1">  1       21 0.11852964E+00 0.24312923E+03</pdfrwt>
<pdfrwt beam="2">  1        3 0.18179508E-01 0.24312923E+03</pdfrwt>
<totfact> 0.70488536E+02</totfact>
</mgrwt>
</event>
<event>
 4    0  0.1190878E-001  0.3396059E+03  0.7546771E-02  0.1066964E+00
         21   -1    0    0  501  502  0.00000000000E+00  0.00000000000E+00  0.10208133491E+04  0.10208133491E+04  0.00000000000E+00 0. -1.
          1   -1    0    0  502    0 -0.00000000000E+00 -0.00000000000E+00 -0.16941379081E+04  0.16941379081E+04  0.00000000000E+00 0. -1.
         25    1    1    2    0    0  0.29213587114E+03 -0.11984913135E+03  0.97718109631E+03  0.10345119992E+04  0.12500000000E+03 0.  0.
          1    1    1    2  501    0 -0.29213587114E+03  0.11984913135E+03 -0.16505056554E+04  0.16804392580E+04  0.00000000000E+00 0. -1.
<mgrwt>
<rscale>  3 0.33960592E+03</rscale>
<asrwt>0</asrwt>
<pdfrwt beam="1">  1       21 0.15704821E+00 0.33960592E+03</pdfrwt>
<pdfrwt beam="2">  1        1 0.26063660E+00 0.33960592E+03</pdfrwt>
<totfact> 0.14045912E+01</totfact>
</mgrwt>
</event>
<event>
 4    0  0.1002184E-001  0.3318398E+03  0.7546771E-02  0.1070326E+00
         21   -1    0    0  501  502  0.00000000000E+00  0.00000000000E+00  0.77260739467E+02  0.77260739467E+02  0.00000000000E+00 0. -1.
         -3   -1    0    0    0  501 -0.00000000000E+00 -0.00000000000E+00 -0.19610795373E+04  0.19610795373E+04  0.00000000000E+00 0.  1.
         25    1    1    2    0    0 -0.37435973191E+02 -0.30510847497E+03 -0.38477669601E+03  0.50810504759E+03  0.12500000000E+03 0.  0.
         -3    1    1    2    0  502  0.37435973191E+02  0.30510847497E+03 -0.14990421018E+04  0.15302352291E+04  0.00000000000E+00 0.  1.
<mgrwt>
<rscale>  3 0.33183977E+03</rscale>
<asrwt>0</asrwt>
<pdfrwt beam="1">  1       21 0.11886268E-01 0.33183977E+03</pdfrwt>
<pdfrwt beam="2">  1       -3 0.30170454E+00 0.33183977E+03</pdfrwt>
<totfact> 0.12293906E+02</totfact>
</mgrwt>
</event>
<event>
 4    0  0.1485059E-001  0.2884672E+03  0.7546771E-02  0.1091152E+00
         21   -1    0    0  501  502  0.00000000000E+00  0.00000000000E+00  0.10332731739E+03  0.10332731739E+03  0.00000000000E+00 0.  1.
          1   -1    0    0  502    0 -0.00000000000E+00 -0.00000000000E+00 -0.74026487158E+03  0.74026487158E+03  0.00000000000E+00 0.  1.
         25    1    1    2    0    0  0.20476807228E+03  0.16018234394E+03 -0.27999362071E+03  0.40200718200E+03  0.12500000000E+03 0.  0.
          1    1    1    2  501    0 -0.20476807228E+03 -0.16018234394E+03 -0.35694393347E+03  0.44158500697E+03  0.00000000000E+00 0.  1.
<mgrwt>
<rscale>  3 0.28846724E+03</rscale>
<asrwt>0</asrwt>
<pdfrwt beam="1">  1       21 0.15896510E-01 0.28846724E+03</pdfrwt>
<pdfrwt beam="2">  1        1 0.11388690E+00 0.28846724E+03</pdfrwt>
<totfact> 0.99890569E+03</totfact>
</mgrwt>
</event>
<event>
 4    0  0.1002184E-001  0.3603283E+03  0.7546771E-02  0.1058454E+00
         21   -1    0    0  501  502  0.00000000000E+00  0.00000000000E+00  0.84234134883E+03  0.84234134883E+03  0.00000000000E+00 0. -1.
          1   -1    0    0  502    0 -0.00000000000E+00 -0.00000000000E+00 -0.14671349379E+03  0.14671349379E+03  0.00000000000E+00 0.  1.
         25    1    1    2    0    0 -0.33791159049E+03  0.52203864605E+01  0.41650634255E+03  0.55073952900E+03  0.12500000000E+03 0.  0.
          1    1    1    2  501    0  0.33791159049E+03 -0.52203864605E+01  0.27912151249E+03  0.43831531362E+03  0.00000000000E+00 0.  1.
<mgrwt>
<rscale>  3 0.36032832E+03</rscale>
<asrwt>0</asrwt>
<pdfrwt beam="1">  1       21 0.12959097E+00 0.36032832E+03</pdfrwt>
<pdfrwt beam="2">  1        1 0.22571307E-01 0.36032832E+03</pdfrwt>
<totfact> 0.96089353E+02</totfact>
</mgrwt>
</event>
<event>
 4    0  0.1598179E-001  0.2475903E+03  0.7546771E-02  0.1114837E+00
         21   -1    0    0  501  502  0.00000000000E+00  0.00000000000E+00  0.44675600171E+02  0.44675600171E+02  0.00000000000E+00 0. -1.
          1   -1    0    0  502    0 -0.00000000000E+00 -0.00000000000E+00 -0.12614013091E+04  0.12614013091E+04  0.00000000000E+00 0. -1.
         25    1    1    2    0    0 -0.95700568069E+02  0.19109521721E+03 -0.80458717835E+03  0.84182035396E+03  0.12500000000E+03 0.  0.
          1    1    1    2  501    0  0.95700568069E+02 -0.19109521721E+03 -0.41213853060E+03  0.46425655534E+03  0.00000000000E+00 0. -1.
<mgrwt>
<rscale>  3 0.24759035E+03</rscale>
<asrwt>0</asrwt>
<pdfrwt beam="1">  1       21 0.68731696E-02 0.24759035E+03</pdfrwt>
<pdfrwt beam="2">  1        1 0.19406173E+00 0.24759035E+03</pdfrwt>
<totfact> 0.18079938E+04</totfact>
</mgrwt>
</event>
<event>
 4    0  0.1003340E-001  0.2903310E+03  0.7546771E-02  0.1090176E+00
         21   -1    0    0  501  502  0.00000000000E+00  0.00000000000E+00  0.18751858014E+04  0.18751858014E+04  0.00000000000E+00 0. -1.
          1   -1    0    0  502    0 -0.00000000000E+00 -0.00000000000E+00 -0.10644188423E+04  0.10644188423E+04  0.00000000000E+00 0. -1.
         25    1    1    2    0    0  0.25935764965E+03 -0.37425634198E+02  0.18475479764E+04  0.18702207340E+04  0.12500000000E+03 0.  0.
          1    1    1    2  501    0 -0.25935764965E+03  0.37425634198E+02 -0.10367810174E+04  0.10693839098E+04  0.00000000000E+00 0. -1.
<mgrwt>
<rscale>  3 0.29033096E+03</rscale>
<asrwt>0</asrwt>
<pdfrwt beam="1">  1       21 0.28849012E+00 0.29033096E+03</pdfrwt>
<pdfrwt beam="2">  1        1 0.16375675E+00 0.29033096E+03</pdfrwt>
<totfact> 0.56662084E+00</totfact>
</mgrwt>
</event>
<event>
 4    0  0.1002184E-001  0.2477015E+03  0.7546771E-02  0.1114766E+00
          2   -1    0    0  502    0 -0.00000000000E+00  0.00000000000E+00  0.11832776689E+04  0.11832776689E+04  0.00000000000E+00 0. -1.
         21   -1    0    0  501  502  0.00000000000E+00 -0.00000000000E+00 -0.60643045358E+02  0.60643045358E+02  0.00000000000E+00 0.  1.
         25    1    1    2    0    0 -0.20211539901E+03  0.69859960325E+02  0.27669834118E+03  0.37137315545E+03  0.12500000000E+03 0.  0.
          2    1    1    2  501    0  0.20211539901E+03 -0.69859960325E+02  0.84593628241E+03  0.87254755886E+03  0.00000000000E+00 0. -1.
<mgrwt>
<rscale>  3 0.24770153E+03</rscale>
<asrwt>0</asrwt>
<pdfrwt beam="1">  1       21 0.93297001E-02 0.24770153E+03</pdfrwt>
<pdfrwt beam="2">  1        2 0.18204270E+00 0.24770153E+03</pdfrwt>
<totfact> 0.23647996E+04</totfact>
</mgrwt>
</event>
<event>
 4    0  0.1558848E-001  0.3102448E+03  0.7546771E-02  0.1080229E+00
         21   -1    0    0  501  502  0.00000000000E+00  0.00000000000E+00  0.63111972924E+03  0.63111972924E+03  0.00000000000E+00 0. -1.
          2   -1    0    0  502    0 -0.00000000000E+00 -0.00000000000E+00 -0.90907055861E+03  0.90907055861E+03  0.00000000000E+00 0. -1.
         25    1    1    2    0    0 -0.28392815409E+03  0.34138847159E+01  0.56835617284E+03  0.64751879548E+03  0.12500000000E+03 0.  0.
          2    1    1    2  501    0  0.28392815409E+03 -0.34138847159E+01 -0.84630700221E+03  0.89267149237E+03  0.00000000000E+00 0. -1.
<mgrwt>
<rscale>  3 0.31024482E+03</rscale>
<asrwt>0</asrwt>
<pdfrwt beam="1">  1       21 0.97095344E-01 0.31024482E+03</pdfrwt>
<pdfrwt beam="2">  1        2 0.13985701E+00 0.31024482E+03</pdfrwt>
<totfact> 0.31227042E+02</totfact>
</mgrwt>
</event>
<event>
 4    0  0.1149274E-001  0.3297433E+03  0.7546771E-02  0.1071251E+00
         -2   -1    0    0    0  501 -0.00000000000E+00  0.00000000000E+00  0.50697254470E+03  0.50697254470E+03  0.00000000000E+00 0. -1.
         21   -1    0    0  501  502  0.00000000000E+00 -0.00000000000E+00 -0.65841429346E+03  0.65841429346E+03  0.00000000000E+00 0.  1.
         25    1    1    2    0    0 -0.26978632169E+03  0.14255163702E+03 -0.56335797500E+03  0.65276552956E+03  0.12500000000E+03 0.  0.
         -2    1    1    2    0  502  0.26978632169E+03 -0.14255163702E+03  0.41191622624E+03  0.51262130860E+03  0.00000000000E+00 0. -1.
<mgrwt>
<rscale>  3 0.32974328E+03</rscale>
<asrwt>0</asrwt>
<pdfrwt beam="1">  1       21 0.10129451E+00 0.32974328E+03</pdfrwt>
<pdfrwt beam="2">  1       -2 0.77995777E-01 0.32974328E+03</pdfrwt>
<totfact> 0.91651033E+01</totfact>
</mgrwt>
</event>
<event>
 4    0  0.1722209E-001  0.2829937E+03  0.7546771E-02  0.1094065E+00
         21   -1    0    0  501  502  0.00000000000E+00  0.00000000000E+00  0.30892319564E+03  0.30892319564E+03  0.00000000000E+00 0. -1.
         -4   -1    0    0    0  501 -0.00000000000E+00 -0.00000000000E+00 -0.45942121145E+03  0.45942121145E+03  0.00000000000E+00 0. -1.
         25    1    1    2    0    0  0.21900530330E+03 -0.12844108595E+03  0.19201923445E+03  0.34198950544E+03  0.12500000000E+03 0.  0.
         -4    1    1    2    0  502 -0.21900530330E+03  0.12844108595E+03 -0.34251725026E+03  0.42635490165E+03  0.00000000000E+00 0. -1.
<mgrwt>
<rscale>  3 0.28299370E+03</rscale>
<asrwt>0</asrwt>
<pdfrwt beam="1">  1       21 0.47526646E-01 0.28299370E+03</pdfrwt>
<pdfrwt beam="2">  1       -4 0.70680186E-01 0.28299370E+03</pdfrwt>
<totfact> 0.32910474E+02</totfact>
</mgrwt>
</event>
<event>
 4    0  0.1889561E-001  0.2988578E+03  0.7546771E-02  0.1085813E+00
         21   -1    0    0  501  502  0.00000000000E+00  0.00000000000E+00  0.58285875785E+03  0.58285875785E+03  0.00000000000E+00 0. -1.
         -2   -1    0    0    0  501 -0.00000000000E+00 -0.00000000000E+00 -0.60679433444E+03  0.60679433444E+03  0.00000000000E+00 0. -1.
         25    1    1    2    0    0 -0.22809586274E+03 -0.14718443980E+03  0.50974798993E+03  0.59089677200E+03  0.12500000000E+03 0.  0.
         -2    1    1    2    0  502  0.22809586274E+03  0.14718443980E+03 -0.53368356652E+03  0.59875632029E+03  0.00000000000E+00 0. -1.
<mgrwt>
<rscale>  3 0.29885780E+03</rscale>
<asrwt>0</asrwt>
<pdfrwt beam="1">  1       21 0.89670578E-01 0.29885780E+03</pdfrwt>
<pdfrwt beam="2">  1       -2 0.93352975E-01 0.29885780E+03</pdfrwt>
<totfact> 0.82729288E+01</totfact>
</mgrwt>
</event>
<event>
 4    0  0.1532322E-001  0.3026467E+03  0.7546771E-02  0.1083925E+00
         21   -1    0    0  501  502  0.00000000000E+00  0.00000000000E+00  0.69621804037E+03  0.69621804037E+03  0.00000000000E+00 0.  1.
          2   -1    0    0  502    0 -0.00000000000E+00 -0.00000000000E+00 -0.51020399613E+03  0.51020399613E+03  0.00000000000E+00 0.  1.
         25    1    1    2    0    0 -0.25963485352E+03  0.92519023632E+02  0.62136718092E+03  0.69115280541E+03  0.12500000000E+03 0.  0.
          2    1    1    2  501    0  0.25963485352E+03 -0.92519023632E+02 -0.43535313667E+03  0.51526923109E+03  0.00000000000E+00 0.  1.
<mgrwt>
<rscale>  3 0.30264670E+03</rscale>
<asrwt>0</asrwt>
<pdfrwt beam="1">  1       21 0.10711047E+00 0.30264670E+03</pdfrwt>
<pdfrwt beam="2">  1        2 0.78492923E-01 0.30264670E+03</pdfrwt>
<totfact> 0.50141026E+02</totfact>
</mgrwt>
</event>
<event>
 4    0  0.1002184E-001  0.3166650E+03  0.7546771E-02  0.1077194E+00
         21   -1    0    0  501  502  0.00000000000E+00  0.00000000000E+00  0.54535028433E+02  0.54535028433E+02  0.00000000000E+00 0. -1.
          2   -1    0    0  502    0 -0.00000000000E+00 -0.00000000000E+00 -0.17263552015E+04  0.17263552015E+04  0.00000000000E+00 0.  1.
         25    1    1    2    0    0 -0.11776225203E+03  0.26605220293E+03 -0.74595068984E+03  0.81038210392E+03  0.12500000000E+03 0.  0.
          2    1    1    2  501    0  0.11776225203E+03 -0.26605220293E+03 -0.92586948327E+03  0.97050812605E+03  0.00000000000E+00 0.  1.
<mgrwt>
<rscale>  3 0.31666500E+03</rscale>
<asrwt>0</asrwt>
<pdfrwt beam="1">  1       21 0.83900041E-02 0.31666500E+03</pdfrwt>
<pdfrwt beam="2">  1        2 0.26559312E+00 0.31666500E+03</pdfrwt>
<totfact> 0.14239738E+04</totfact>
</mgrwt>
</event>
<event>
 4    0  0.1404862E-001  0.2713598E+03  0.7546771E-02  0.1100504E+00
         21   -1    0    0  501  502  0.00000000000E+00  0.00000000000E+00  0.24193023050E+03  0.24193023050E+03  0.00000000000E+00 0.  1.
          2   -1    0    0  502    0 -0.00000000000E+00 -0.00000000000E+00 -0.54020026798E+03  0.54020026798E+03  0.00000000000E+00 0.  1.
         25    1    1    2    0    0 -0.36599566432E+02  0.23805804095E+03 -0.42935145961E+03  0.50791616926E+03  0.12500000000E+03 0.  0.
          2    1    1    2  501    0  0.36599566432E+02 -0.23805804095E+03  0.13108142212E+03  0.27421432922E+03  0.00000000000E+00 0.  1.
<mgrwt>
<rscale>  3 0.27135983E+03</rscale>
<asrwt>0</asrwt>
<pdfrwt beam="1">  1       21 0.37220036E-01 0.27135983E+03</pdfrwt>
<pdfrwt beam="2">  1        2 0.83107733E-01 0.27135983E+03</pdfrwt>
<totfact> 0.48616224E+03</totfact>
</mgrwt>
</event>
<event>
 4    0  0.1353779E-001  0.3860439E+03  0.7546771E-02  0.1048722E+00
         21   -1    0    0  501  502  0.00000000000E+00  0.00000000000E+00  0.14312511272E+03  0.14312511272E+03  0.00000000000E+00 0. -1.
          2   -1    0    0  502    0 -0.00000000000E+00 -0.00000000000E+00 -0.99598897892E+03  0.99598897892E+03  0.00000000000E+00 0. -1.
         25    1    1    2    0    0 -0.25560257582E+03 -0.26090645471E+03 -0.49537598375E+03  0.62803441001E+03  0.12500000000E+03 0.  0.
          2    1    1    2  501    0  0.25560257582E+03  0.26090645471E+03 -0.35748788245E+03  0.51107968163E+03  0.00000000000E+00 0. -1.
<mgrwt>
<rscale>  3 0.38604385E+03</rscale>
<asrwt>0</asrwt>
<pdfrwt beam="1">  1       21 0.22019248E-01 0.38604385E+03</pdfrwt>
<pdfrwt beam="2">  1        2 0.15322907E+00 0.38604385E+03</pdfrwt>
<totfact> 0.61478329E+03</totfact>
</mgrwt>
</event>
<event>
 4    0  0.1002184E-001  0.2742570E+03  0.7546771E-02  0.1098868E+00
          4   -1    0    0  502    0 -0.00000000000E+00  0.00000000000E+00  0.56271091706E+02  0.56271091706E+02  0.00000000000E+00 0.  1.
         21   -1    0    0  501  502  0.00000000000E+00 -0.00000000000E+00 -0.12645165496E+04  0.12645165496E+04  0.00000000000E+00 0.  1.
         25    1    1    2    0    0 -0.60533898156E+02 -0.23649005309E+03 -0.79319303333E+03  0.83926878064E+03  0.12500000000E+03 0.  0.
          4    1    1    2  501    0  0.60533898156E+02  0.23649005309E+03 -0.41505242454E+03  0.48151886064E+03  0.00000000000E+00 0.  1.
<mgrwt>
<rscale>  3 0.27425699E+03</rscale>
<asrwt>0</asrwt>
<pdfrwt beam="1">  1       21 0.19454101E+00 0.27425699E+03</pdfrwt>
<pdfrwt beam="2">  1        4 0.86570910E-02 0.27425699E+03</pdfrwt>
<totfact> 0.58119657E+02</totfact>
</mgrwt>
</event>
<event>
 4    0  0.1103764E-001  0.2381045E+03  0.7546771E-02  0.1121062E+00
         21   -1    0    0  501  502  0.00000000000E+00  0.00000000000E+00  0.84314660976E+03  0.84314660976E+03  0.00000000000E+00 0.  1.
          1   -1    0    0  502    0 -0.00000000000E+00 -0.00000000000E+00 -0.59898956840E+02  0.59898956840E+02  0.00000000000E+00 0.  1.
         25    1    1    2    0    0 -0.15534464555E+03  0.13014147786E+03  0.51005460058E+03  0.56289382545E+03  0.12500000000E+03 0.  0.
          1    1    1    2  501    0  0.15534464555E+03 -0.13014147786E+03  0.27319305234E+03  0.34015174115E+03  0.00000000000E+00 0.  1.
<mgrwt>
<rscale>  3 0.23810452E+03</rscale>
<asrwt>0</asrwt>
<pdfrwt beam="1">  1       21 0.12971485E+00 0.23810452E+03</pdfrwt>
<pdfrwt beam="2">  1        1 0.92152247E-02 0.23810452E+03</pdfrwt>
<totfact> 0.32570216E+03</totfact>
</mgrwt>
</event>
<event>
 4    0  0.1575485E-001  0.2799543E+03  0.7546771E-02  0.1095714E+00
         21   -1    0    0  501  502  0.00000000000E+00  0.00000000000E+00  0.51400303813E+03  0.51400303813E+03  0.00000000000E+00 0.  1.
         -4   -1    0    0    0  501 -0.00000000000E+00 -0.00000000000E+00 -0.15509986935E+03  0.15509986935E+03  0.00000000000E+00 0.  1.
         25    1    1    2    0    0 -0.24565427580E+03  0.49024587285E+02  0.73664216230E+02  0.28948376488E+03  0.12500000000E+03 0.  0.
         -4    1    1    2    0  502  0.24565427580E+03 -0.49024587285E+02  0.28523895255E+03  0.37961914260E+03  0.00000000000E+00 0.  1.
<mgrwt>
<rscale>  3 0.27995434E+03</rscale>
<asrwt>0</asrwt>
<pdfrwt beam="1">  1       21 0.79077390E-01 0.27995434E+03</pdfrwt>
<pdfrwt beam="2">  1       -4 0.23861519E-01 0.27995434E+03</pdfrwt>
<totfact> 0.96554923E+02</totfact>
</mgrwt>
</event>
<event>
 4    0  0.1002184E-001  0.2430926E+03  0.7546771E-02  0.1117750E+00
         21   -1    0    0  501  502  0.00000000000E+00  0.00000000000E+00  0.64900116612E+03  0.64900116612E+03  0.00000000000E+00 0. -1.
         -1   -1    0    0    0  501 -0.00000000000E+00 -0.00000000000E+00 -0.18986050171E+03  0.18986050171E+03  0.00000000000E+00 0.  1.
         25    1    1    2    0    0 -0.85746637905E+02 -0.19004343798E+03  0.55760313543E+03  0.60828878904E+03  0.12500000000E+03 0.  0.
         -1    1    1    2    0  502  0.85746637905E+02  0.19004343798E+03 -0.98462471029E+02  0.23057287879E+03  0.00000000000E+00 0.  1.
<mgrwt>
<rscale>  3 0.24309256E+03</rscale>
<asrwt>0</asrwt>
<pdfrwt beam="1">  1       21 0.99846332E-01 0.24309256E+03</pdfrwt>
<pdfrwt beam="2">  1       -1 0.29209308E-01 0.24309256E+03</pdfrwt>
<totfact> 0.78811505E+02</totfact>
</mgrwt>
</event>
<event>
 4    0  0.1339278E-001  0.2400187E+03  0.7546771E-02  0.1119780E+00
          1   -1    0    0  502    0 -0.00000000000E+00  0.00000000000E+00  0.17875161882E+04  0.17875161882E+04  0.00000000000E+00 0.  1.
         21   -1    0    0  501  502  0.00000000000E+00 -0.00000000000E+00 -0.11576054343E+03  0.11576054343E+03  0.00000000000E+00 0. -1.
         25    1    1    2    0    0 -0.80708505788E+01 -0.20474094817E+03  0.22199190255E+02  0.24104314662E+03  0.12500000000E+03 0.  0.
          1    1    1    2  501    0  0.80708505788E+01  0.20474094817E+03  0.16495564545E+04  0.16622335850E+04  0.00000000000E+00 0.  1.
<mgrwt>
<rscale>  3 0.24001874E+03</rscale>
<asrwt>0</asrwt>
<pdfrwt beam="1">  1       21 0.17809316E-01 0.24001874E+03</pdfrwt>
<pdfrwt beam="2">  1        1 0.27500247E+00 0.24001874E+03</pdfrwt>
<totfact> 0.14760633E+03</totfact>
</mgrwt>
</event>
<event>
 4    0  0.1358571E-001  0.2409722E+03  0.7546771E-02  0.1119147E+00
         21   -1    0    0  501  502  0.00000000000E+00  0.00000000000E+00  0.33429730147E+03  0.33429730147E+03  0.00000000000E+00 0. -1.
         -3   -1    0    0    0  501 -0.00000000000E+00 -0.00000000000E+00 -0.17993367905E+03  0.17993367905E+03  0.00000000000E+00 0. -1.
         25    1    1    2    0    0 -0.28564895907E+02  0.20402614087E+03  0.18781165124E+03  0.30551732484E+03  0.12500000000E+03 0.  0.
         -3    1    1    2    0  502  0.28564895907E+02 -0.20402614087E+03 -0.33448028827E+02  0.20871365568E+03  0.00000000000E+00 0. -1.
<mgrwt>
<rscale>  3 0.24097224E+03</rscale>
<asrwt>0</asrwt>
<pdfrwt beam="1">  1       21 0.51430354E-01 0.24097224E+03</pdfrwt>
<pdfrwt beam="2">  1       -3 0.27682105E-01 0.24097224E+03</pdfrwt>
<totfact> 0.22029160E+03</totfact>
</mgrwt>
</event>
<event>
 4    0  0.1002184E-001  0.2474227E+03  0.7546771E-02  0.1114945E+00
         21   -1    0    0  501  502  0.00000000000E+00  0.00000000000E+00  0.10740151902E+03  0.10740151902E+03  0.00000000000E+00 0. -1.
          1   -1    0    0  502    0 -0.00000000000E+00 -0.00000000000E+00 -0.70020307050E+03  0.70020307050E+03  0.00000000000E+00 0.  1.
         25    1    1    2    0    0  0.21223459193E+03 -0.23440881333E+02 -0.93390124414E+02  0.26446117346E+03  0.12500000000E+03 0.  0.
          1    1    1    2  501    0 -0.21223459193E+03  0.23440881333E+02 -0.49941142706E+03  0.54314341606E+03  0.00000000000E+00 0.  1.
<mgrwt>
<rscale>  3 0.24742271E+03</rscale>
<asrwt>0</asrwt>
<pdfrwt beam="1">  1       21 0.16523311E-01 0.24742271E+03</pdfrwt>
<pdfrwt beam="2">  1        1 0.10772354E+00 0.24742271E+03</pdfrwt>
<totfact> 0.10183022E+04</totfact>
</mgrwt>
</event>
<event>
 4    0  0.1002184E-001  0.2861225E+03  0.7546771E-02  0.1092391E+00
         21   -1    0    0  501  502  0.00000000000E+00  0.00000000000E+00  0.17400343752E+04  0.17400343752E+04  0.00000000000E+00 0. -1.
          2   -1    0    0  502    0 -0.00000000000E+00 -0.00000000000E+00 -0.42746502099E+02  0.42746502099E+02  0.00000000000E+00 0. -1.
         25    1    1    2    0    0 -0.25699483608E+03 -0.13954113090E+02  0.81782812593E+03  0.86643459454E+03  0.12500000000E+03 0.  0.
          2    1    1    2  501    0  0.25699483608E+03  0.13954113090E+02  0.87945974716E+03  0.91634628276E+03  0.00000000000E+00 0. -1.
<mgrwt>
<rscale>  3 0.28612246E+03</rscale>
<asrwt>0</asrwt>
<pdfrwt beam="1">  1       21 0.26769754E+00 0.28612246E+03</pdfrwt>
<pdfrwt beam="2">  1        2 0.65763863E-02 0.28612246E+03</pdfrwt>
<totfact> 0.64829983E+02</totfact>
</mgrwt>
</event>
<event>
 4    0  0.1002184E-001  0.2732861E+03  0.7546771E-02  0.1099414E+00
          1   -1    0    0  502    0 -0.00000000000E+00  0.00000000000E+00  0.38906315331E+04  0.38906315331E+04  0.00000000000E+00 0.  1.
         21   -1    0    0  501  502  0.00000000000E+00 -0.00000000000E+00 -0.55586942055E+02  0.55586942055E+02  0.00000000000E+00 0.  1.
         25    1    1    2    0    0  0.24171331116E+03 -0.25198095029E+02  0.31184631181E+03  0.41464851498E+03  0.12500000000E+03 0.  0.
          1    1    1    2  501    0 -0.24171331116E+03  0.25198095029E+02  0.35231982792E+04  0.35315699602E+04  0.00000000000E+00 0.  1.
<mgrwt>
<rscale>  3 0.27328606E+03</rscale>
<asrwt>0</asrwt>
<pdfrwt beam="1">  1       21 0.85518403E-02 0.27328606E+03</pdfrwt>
<pdfrwt beam="2">  1        1 0.59855848E+00 0.27328606E+03</pdfrwt>
<totfact> 0.18267538E+02</totfact>
</mgrwt>
</event>
<event>
 4    0  0.1233279E-001  0.3133152E+03  0.7546771E-02  0.1078768E+00
         21   -1    0    0  501  502  0.00000000000E+00  0.00000000000E+00  0.42050782851E+03  0.42050782851E+03  0.00000000000E+00 0. -1.
          2   -1    0    0  502    0 -0.00000000000E+00 -0.00000000000E+00 -0.27454351691E+03  0.27454351691E+03  0.00000000000E+00 0. -1.
         25    1    1    2    0    0  0.27444521919E+03  0.84977926882E+02  0.23790089638E+03  0.39339962238E+03  0.12500000000E+03 0.  0.
          2    1    1    2  501    0 -0.27444521919E+03 -0.84977926882E+02 -0.91936584787E+02  0.30165172304E+03  0.00000000000E+00 0. -1.
<mgrwt>
<rscale>  3 0.31331522E+03</rscale>
<asrwt>0</asrwt>
<pdfrwt beam="1">  1       21 0.64693512E-01 0.31331522E+03</pdfrwt>
<pdfrwt beam="2">  1        2 0.42237464E-01 0.31331522E+03</pdfrwt>
<totfact> 0.31690073E+03</totfact>
</mgrwt>
</event>
<event>
 4    0  0.1002184E-001  0.3532939E+03  0.7546771E-02  0.1061271E+00
          2   -1    0    0  502    0 -0.00000000000E+00  0.00000000000E+00  0.88373173656E+03  0.88373173656E+03  0.00000000000E+00 0. -1.
         21   -1    0    0  501  502  0.00000000000E+00 -0.00000000000E+00 -0.13272594750E+03  0.13272594750E+03  0.00000000000E+00 0.  1.
         25    1    1    2    0    0 -0.24686855869E+02 -0.32951809252E+03  0.35759231516E+03  0.50268168657E+03  0.12500000000E+03 0.  0.
          2    1    1    2  501    0  0.24686855869E+02  0.32951809252E+03  0.39341347389E+03  0.51377599748E+03  0.00000000000E+00 0. -1.
<mgrwt>
<rscale>  3 0.35329395E+03</rscale>
<asrwt>0</asrwt>
<pdfrwt beam="1">  1       21 0.20419377E-01 0.35329395E+03</pdfrwt>
<pdfrwt beam="2">  1        2 0.13595873E+00 0.35329395E+03</pdfrwt>
<totfact> 0.84321321E+03</totfact>
</mgrwt>
</event>
<event>
 4    0  0.1081055E-001  0.2761631E+03  0.7546771E-02  0.1097803E+00
          3   -1    0    0  502    0 -0.00000000000E+00  0.00000000000E+00  0.78194710290E+02  0.78194710290E+02  0.00000000000E+00 0.  1.
         21   -1    0    0  501  502  0.00000000000E+00 -0.00000000000E+00 -0.93116639452E+03  0.93116639452E+03  0.00000000000E+00 0.  1.
         25    1    1    2    0    0 -0.32089257799E+02 -0.24415429408E+03 -0.32295296853E+03  0.42492900544E+03  0.12500000000E+03 0.  0.
          3    1    1    2  501    0  0.32089257799E+02  0.24415429408E+03 -0.53001871570E+03  0.58443209937E+03  0.00000000000E+00 0.  1.
<mgrwt>
<rscale>  3 0.27616307E+03</rscale>
<asrwt>0</asrwt>
<pdfrwt beam="1">  1       21 0.14325637E+00 0.27616307E+03</pdfrwt>
<pdfrwt beam="2">  1        3 0.12029955E-01 0.27616307E+03</pdfrwt>
<totfact> 0.88210700E+02</totfact>
</mgrwt>
</event>
<event>
 4    0  0.1294608E-001  0.3777112E+03  0.7546771E-02  0.1051783E+00
         21   -1    0    0  501  502  0.00000000000E+00  0.00000000000E+00  0.44920709741E+03  0.44920709741E+03  0.00000000000E+00 0.  1.
          2   -1    0    0  502    0 -0.00000000000E+00 -0.00000000000E+00 -0.39333306081E+03  0.39333306081E+03  0.00000000000E+00 0.  1.
         25    1    1    2    0    0  0.56329944497E+02 -0.35194837989E+03  0.23375288706E+03  0.44419155436E+03  0.12500000000E+03 0.  0.
          2    1    1    2  501    0 -0.56329944497E+02  0.35194837989E+03 -0.17787885046E+03  0.39834860386E+03  0.00000000000E+00 0.  1.
<mgrwt>
<rscale>  3 0.37771117E+03</rscale>
<asrwt>0</asrwt>
<pdfrwt beam="1">  1       21 0.69108784E-01 0.37771117E+03</pdfrwt>
<pdfrwt beam="2">  1        2 0.60512779E-01 0.37771117E+03</pdfrwt>
<totfact> 0.18200684E+03</totfact>
</mgrwt>
</event>
<event>
 4    0  0.1292039E-001  0.2731332E+03  0.7546771E-02  0.1099500E+00
         21   -1    0    0  501  502  0.00000000000E+00  0.00000000000E+00  0.50125683705E+03  0.50125683705E+03  0.00000000000E+00 0.  1.
          3   -1    0    0  502    0 -0.00000000000E+00 -0.00000000000E+00 -0.35936859075E+03  0.35936859075E+03  0.00000000000E+00 0.  1.
         25    1    1    2    0    0  0.14009153573E+03 -0.19837116287E+03  0.41395103936E+03  0.49594074206E+03  0.12500000000E+03 0.  0.
          3    1    1    2  501    0 -0.14009153573E+03  0.19837116287E+03 -0.27206279306E+03  0.36468468574E+03  0.00000000000E+00 0.  1.
<mgrwt>
<rscale>  3 0.27313322E+03</rscale>
<asrwt>0</asrwt>
<pdfrwt beam="1">  1       21 0.77116437E-01 0.27313322E+03</pdfrwt>
<pdfrwt beam="2">  1        3 0.55287475E-01 0.27313322E+03</pdfrwt>
<totfact> 0.23546454E+02</totfact>
</mgrwt>
</event>
<event>
 4    0  0.1002184E-001  0.2662089E+03  0.7546771E-02  0.1103469E+00
         -4   -1    0    0    0  501 -0.00000000000E+00  0.00000000000E+00  0.34437687860E+02  0.34437687860E+02  0.00000000000E+00 0.  1.
         21   -1    0    0  501  502  0.00000000000E+00 -0.00000000000E+00 -0.20855382592E+04  0.20855382592E+04  0.00000000000E+00 0.  1.
         25    1    1    2    0    0  0.16714502316E+03 -0.16524141396E+03 -0.14561169195E+04  0.14802512175E+04  0.12500000000E+03 0.  0.
         -4    1    1    2    0  502 -0.16714502316E+03  0.16524141396E+03 -0.59498365186E+03  0.63972472958E+03  0.00000000000E+00 0.  1.
<mgrwt>
<rscale>  3 0.26620891E+03</rscale>
<asrwt>0</asrwt>
<pdfrwt beam="1">  1       21 0.32085201E+00 0.26620891E+03</pdfrwt>
<pdfrwt beam="2">  1       -4 0.52981063E-02 0.26620891E+03</pdfrwt>
<totfact> 0.22688145E+02</totfact>
</mgrwt>
</event>
<event>
 4    0  0.1002184E-001  0.3265609E+03  0.7546771E-02  0.1072669E+00
         21   -1    0    0  501  502  0.00000000000E+00  0.00000000000E+00  0.15388874020E+04  0.15388874020E+04  0.00000000000E+00 0. -1.
          2   -1    0    0  502    0 -0.00000000000E+00 -0.00000000000E+00 -0.12217060908E+03  0.12217060908E+03  0.00000000000E+00 0.  1.
         25    1    1    2    0    0 -0.29307117408E+03 -0.71598245588E+02  0.12953351498E+04  0.13358649528E+04  0.12500000000E+03 0.  0.
          2    1    1    2  501    0  0.29307117408E+03  0.71598245588E+02  0.12138164309E+03  0.32519305824E+03  0.00000000000E+00 0.  1.
<mgrwt>
<rscale>  3 0.32656090E+03</rscale>
<asrwt>0</asrwt>
<pdfrwt beam="1">  1       21 0.23675189E+00 0.32656090E+03</pdfrwt>
<pdfrwt beam="2">  1        2 0.18795479E-01 0.32656090E+03</pdfrwt>
<totfact> 0.26566674E+02</totfact>
</mgrwt>
</event>
<event>
 4    0  0.1171054E-001  0.2807104E+03  0.7546771E-02  0.1095302E+00
          2   -1    0    0  502    0 -0.00000000000E+00  0.00000000000E+00  0.21879228043E+03  0.21879228043E+03  0.00000000000E+00 0. -1.
         21   -1    0    0  501  502  0.00000000000E+00 -0.00000000000E+00 -0.43640384451E+03  0.43640384451E+03  0.00000000000E+00 0. -1.
         25    1    1    2    0    0  0.24503211420E+03 -0.55969322517E+02 -0.27972889260E+03  0.39629099839E+03  0.12500000000E+03 0.  0.
          2    1    1    2  501    0 -0.24503211420E+03  0.55969322517E+02  0.62117328514E+02  0.25890512655E+03  0.00000000000E+00 0. -1.
<mgrwt>
<rscale>  3 0.28071035E+03</rscale>
<asrwt>0</asrwt>
<pdfrwt beam="1">  1       21 0.67139053E-01 0.28071035E+03</pdfrwt>
<pdfrwt beam="2">  1        2 0.33660351E-01 0.28071035E+03</pdfrwt>
<totfact> 0.37701995E+03</totfact>
</mgrwt>
</event>
<event>
 4    0  0.1393131E-001  0.2746234E+03  0.7546771E-02  0.1098662E+00
          1   -1    0    0  502    0 -0.00000000000E+00  0.00000000000E+00  0.37272461246E+03  0.37272461246E+03  0.00000000000E+00 0. -1.
         21   -1    0    0  501  502  0.00000000000E+00 -0.00000000000E+00 -0.18417312404E+03  0.18417312404E+03  0.00000000000E+00 0. -1.
         25    1    1    2    0    0 -0.19624002294E+03 -0.14588642213E+03  0.13740451753E+03  0.30707978801E+03  0.12500000000E+03 0.  0.
          1    1    1    2  501    0  0.19624002294E+03  0.14588642213E+03  0.51146970884E+02  0.24981794850E+03  0.00000000000E+00 0. -1.
<mgrwt>
<rscale>  3 0.27462337E+03</rscale>
<asrwt>0</asrwt>
<pdfrwt beam="1">  1       21 0.28334327E-01 0.27462337E+03</pdfrwt>
<pdfrwt beam="2">  1        1 0.57342248E-01 0.27462337E+03</pdfrwt>
<totfact> 0.85304434E+03</totfact>
</mgrwt>
</event>
<event>
 4    0  0.1536835E-001  0.3573079E+03  0.7546771E-02  0.1059655E+00
          2   -1    0    0  502    0 -0.00000000000E+00  0.00000000000E+00  0.94541139149E+03  0.94541139149E+03  0.00000000000E+00 0. -1.
         21   -1    0    0  501  502  0.00000000000E+00 -0.00000000000E+00 -0.40665382613E+03  0.40665382613E+03  0.00000000000E+00 0. -1.
         25    1    1    2    0    0 -0.69142318451E+02 -0.32751069707E+03 -0.28876587946E+03  0.45940684588E+03  0.12500000000E+03 0.  0.
          2    1    1    2  501    0  0.69142318451E+02  0.32751069707E+03  0.82752344483E+03  0.89265837174E+03  0.00000000000E+00 0. -1.
<mgrwt>
<rscale>  3 0.35730787E+03</rscale>
<asrwt>0</asrwt>
<pdfrwt beam="1">  1       21 0.62562127E-01 0.35730787E+03</pdfrwt>
<pdfrwt beam="2">  1        2 0.14544791E+00 0.35730787E+03</pdfrwt>
<totfact> 0.79286949E+02</totfact>
</mgrwt>
</event>
<event>
 4    0  0.1002184E-001  0.5893812E+03  0.7546771E-02  0.9927685E-01
         21   -1    0    0  501  502  0.00000000000E+00  0.00000000000E+00  0.41006547285E+03  0.41006547285E+03  0.00000000000E+00 0.  1.
          1   -1    0    0  502    0 -0.00000000000E+00 -0.00000000000E+00 -0.85040805022E+03  0.85040805022E+03  0.00000000000E+00 0. -1.
         25    1    1    2    0    0 -0.10341198227E+03 -0.56661379090E+03 -0.12022106204E+03  0.60151752250E+03  0.12500000000E+03 0.  0.
          1    1    1    2  501    0  0.10341198227E+03  0.56661379090E+03 -0.32012151532E+03  0.65895600057E+03  0.00000000000E+00 0. -1.
<mgrwt>
<rscale>  3 0.58938122E+03</rscale>
<asrwt>0</asrwt>
<pdfrwt beam="1">  1       21 0.63086997E-01 0.58938122E+03</pdfrwt>
<pdfrwt beam="2">  1        1 0.13083201E+00 0.58938122E+03</pdfrwt>
<totfact> 0.47403193E+02</totfact>
</mgrwt>
</event>
<event>
 4    0  0.1274218E-001  0.3801573E+03  0.7546771E-02  0.1050876E+00
         -4   -1    0    0    0  501 -0.00000000000E+00  0.00000000000E+00  0.13752487340E+04  0.13752487340E+04  0.00000000000E+00 0. -1.
         21   -1    0    0  501  502  0.00000000000E+00 -0.00000000000E+00 -0.23167542119E+03  0.23167542119E+03  0.00000000000E+00 0.  1.
         25    1    1    2    0    0 -0.35334056590E+03  0.63600153186E+02 -0.28377452211E+02  0.38121491943E+03  0.12500000000E+03 0.  0.
         -4    1    1    2    0  502  0.35334056590E+03 -0.63600153186E+02  0.11719507650E+04  0.12257092357E+04  0.00000000000E+00 0. -1.
<mgrwt>
<rscale>  3 0.38015725E+03</rscale>
<asrwt>0</asrwt>
<pdfrwt beam="1">  1       21 0.35642373E-01 0.38015725E+03</pdfrwt>
<pdfrwt beam="2">  1       -4 0.21157672E+00 0.38015725E+03</pdfrwt>
<totfact> 0.37077218E+01</totfact>
</mgrwt>
</event>
<event>
 4    0  0.1002184E-001  0.2530921E+03  0.7546771E-02  0.1111366E+00
         21   -1    0    0  501  502  0.00000000000E+00  0.00000000000E+00  0.80170131300E+03  0.80170131300E+03  0.00000000000E+00 0. -1.
         -1   -1    0    0    0  501 -0.00000000000E+00 -0.00000000000E+00 -0.10890063552E+03  0.10890063552E+03  0.00000000000E+00 0.  1.
         25    1    1    2    0    0 -0.12646163476E+03 -0.18010568757E+03  0.63424120347E+03  0.68287444522E+03  0.12500000000E+03 0.  0.
         -1    1    1    2    0  502  0.12646163476E+03  0.18010568757E+03  0.58559474011E+02  0.22772750330E+03  0.00000000000E+00 0.  1.
<mgrwt>
<rscale>  3 0.25309209E+03</rscale>
<asrwt>0</asrwt>
<pdfrwt beam="1">  1       21 0.12333866E+00 0.25309209E+03</pdfrwt>
<pdfrwt beam="2">  1       -1 0.16753944E-01 0.25309209E+03</pdfrwt>
<totfact> 0.11695104E+03</totfact>
</mgrwt>
</event>
<event>
 4    0  0.1421030E-001  0.3014997E+03  0.7546771E-02  0.1084493E+00
          2   -1    0    0  502    0 -0.00000000000E+00  0.00000000000E+00  0.73608680825E+03  0.73608680825E+03  0.00000000000E+00 0. -1.
         21   -1    0    0  501  502  0.00000000000E+00 -0.00000000000E+00 -0.11316625983E+03  0.11316625983E+03  0.00000000000E+00 0. -1.
         25    1    1    2    0    0 -0.23653925228E+03  0.13901879711E+03  0.29686893006E+03  0.42312315637E+03  0.12500000000E+03 0.  0.
          2    1    1    2  501    0  0.23653925228E+03 -0.13901879711E+03  0.32605161836E+03  0.42612991171E+03  0.00000000000E+00 0. -1.
<mgrwt>
<rscale>  3 0.30149966E+03</rscale>
<asrwt>0</asrwt>
<pdfrwt beam="1">  1       21 0.17410194E-01 0.30149966E+03</pdfrwt>
<pdfrwt beam="2">  1        2 0.11324412E+00 0.30149966E+03</pdfrwt>
<totfact> 0.14544151E+04</totfact>
</mgrwt>
</event>
<event>
 4    0  0.1002184E-001  0.2833591E+03  0.7546771E-02  0.1093868E+00
         21   -1    0    0  501  502  0.00000000000E+00  0.00000000000E+00  0.37426232543E+02  0.37426232543E+02  0.00000000000E+00 0.  1.
          4   -1    0    0  502    0 -0.00000000000E+00 -0.00000000000E+00 -0.20536742286E+04  0.20536742286E+04  0.00000000000E+00 0. -1.
         25    1    1    2    0    0  0.23759317092E+03  0.90647036294E+02 -0.80413602493E+03  0.85260022675E+03  0.12500000000E+03 0.  0.
          4    1    1    2  501    0 -0.23759317092E+03 -0.90647036294E+02 -0.12121119711E+04  0.12385002344E+04  0.00000000000E+00 0. -1.
<mgrwt>
<rscale>  3 0.28335914E+03</rscale>
<asrwt>0</asrwt>
<pdfrwt beam="1">  1       21 0.57578797E-02 0.28335914E+03</pdfrwt>
<pdfrwt beam="2">  1        4 0.31595000E+00 0.28335914E+03</pdfrwt>
<totfact> 0.25950960E+02</totfact>
</mgrwt>
</event>
<event>
 4    0  0.1354827E-001  0.4308632E+03  0.7546771E-02  0.1033588E+00
         21   -1    0    0  501  502  0.00000000000E+00  0.00000000000E+00  0.11028410706E+03  0.11028410706E+03  0.00000000000E+00 0.  1.
          2   -1    0    0  502    0 -0.00000000000E+00 -0.00000000000E+00 -0.16277110280E+04  0.16277110280E+04  0.00000000000E+00 0.  1.
         25    1    1    2    0    0  0.32705475615E+03  0.25110407405E+03 -0.68905332864E+03  0.81267309493E+03  0.12500000000E+03 0.  0.
          2    1    1    2  501    0 -0.32705475615E+03 -0.25110407405E+03 -0.82837359231E+03  0.92532204013E+03  0.00000000000E+00 0.  1.
<mgrwt>
<rscale>  3 0.43086317E+03</rscale>
<asrwt>0</asrwt>
<pdfrwt beam="1">  1       21 0.16966787E-01 0.43086317E+03</pdfrwt>
<pdfrwt beam="2">  1        2 0.25041706E+00 0.43086317E+03</pdfrwt>
<totfact> 0.43610285E+03</totfact>
</mgrwt>
</event>
<event>
 4    0  0.1121249E-001  0.2383200E+03  0.7546771E-02  0.1120917E+00
          2   -1    0    0  502    0 -0.00000000000E+00  0.00000000000E+00  0.29913246422E+04  0.29913246422E+04  0.00000000000E+00 0.  1.
         21   -1    0    0  501  502  0.00000000000E+00 -0.00000000000E+00 -0.73579253831E+02  0.73579253831E+02  0.00000000000E+00 0.  1.
         25    1    1    2    0    0 -0.19935802965E+03  0.37786072773E+02  0.13328289392E+03  0.27305812768E+03  0.12500000000E+03 0.  0.
          2    1    1    2  501    0  0.19935802965E+03 -0.37786072773E+02  0.27844624945E+04  0.27918457684E+04  0.00000000000E+00 0.  1.
<mgrwt>
<rscale>  3 0.23831998E+03</rscale>
<asrwt>0</asrwt>
<pdfrwt beam="1">  1       21 0.11319887E-01 0.23831998E+03</pdfrwt>
<pdfrwt beam="2">  1        2 0.46020370E+00 0.23831998E+03</pdfrwt>
<totfact> 0.17557618E+03</totfact>
</mgrwt>
</event>
<event>
 4    0  0.1002184E-001  0.5622895E+03  0.7546771E-02  0.9986887E-01
         21   -1    0    0  501  502  0.00000000000E+00  0.00000000000E+00  0.18507315264E+03  0.18507315264E+03  0.00000000000E+00 0. -1.
          2   -1    0    0  502    0 -0.00000000000E+00 -0.00000000000E+00 -0.22199185205E+04  0.22199185205E+04  0.00000000000E+00 0.  1.
         25    1    1    2    0    0 -0.52486717259E+03 -0.15830017642E+03 -0.42638806264E+03  0.70567434039E+03  0.12500000000E+03 0.  0.
          2    1    1    2  501    0  0.52486717259E+03  0.15830017642E+03 -0.16084573053E+04  0.16993173328E+04  0.00000000000E+00 0.  1.
<mgrwt>
<rscale>  3 0.56228951E+03</rscale>
<asrwt>0</asrwt>
<pdfrwt beam="1">  1       21 0.28472792E-01 0.56228951E+03</pdfrwt>
<pdfrwt beam="2">  1        2 0.34152593E+00 0.56228951E+03</pdfrwt>
<totfact> 0.74780912E+02</totfact>
</mgrwt>
</event>
<event>
 4    0  0.1296431E-001  0.3081815E+03  0.7546771E-02  0.1081221E+00
         21   -1    0    0  501  502  0.00000000000E+00  0.00000000000E+00  0.41837234439E+03  0.41837234439E+03  0.00000000000E+00 0. -1.
          2   -1    0    0  502    0 -0.00000000000E+00 -0.00000000000E+00 -0.33146946206E+03  0.33146946206E+03  0.00000000000E+00 0. -1.
         25    1    1    2    0    0 -0.22088026940E+03  0.17482194816E+03  0.27342681156E+03  0.41199275266E+03  0.12500000000E+03 0.  0.
          2    1    1    2  501    0  0.22088026940E+03 -0.17482194816E+03 -0.18652392923E+03  0.33784905378E+03  0.00000000000E+00 0. -1.
<mgrwt>
<rscale>  3 0.30818145E+03</rscale>
<asrwt>0</asrwt>
<pdfrwt beam="1">  1       21 0.64364976E-01 0.30818145E+03</pdfrwt>
<pdfrwt beam="2">  1        2 0.50995302E-01 0.30818145E+03</pdfrwt>
<totfact> 0.26144293E+03</totfact>
</mgrwt>
</event>
<event>
 4    0  0.1002184E-001  0.2966419E+03  0.7546771E-02  0.1086931E+00
          2   -1    0    0  502    0 -0.00000000000E+00  0.00000000000E+00  0.23162012104E+04  0.23162012104E+04  0.00000000000E+00 0. -1.
         21   -1    0    0  501  502  0.00000000000E+00 -0.00000000000E+00 -0.42487984653E+02  0.42487984653E+02  0.00000000000E+00 0.  1.
         25    1    1    2    0    0  0.92299611098E+02 -0.25268987428E+03  0.67228239078E+03  0.73481970831E+03  0.12500000000E+03 0.  0.
          2    1    1    2  501    0 -0.92299611098E+02  0.25268987428E+03  0.16014308349E+04  0.16238694867E+04  0.00000000000E+00 0. -1.
<mgrwt>
<rscale>  3 0.29664186E+03</rscale>
<asrwt>0</asrwt>
<pdfrwt beam="1">  1       21 0.65366148E-02 0.29664186E+03</pdfrwt>
<pdfrwt beam="2">  1        2 0.35633855E+00 0.29664186E+03</pdfrwt>
<totfact> 0.10772993E+04</totfact>
</mgrwt>
</event>
<event>
 4    0  0.1406871E-001  0.4101407E+03  0.7546771E-02  0.1040324E+00
          1   -1    0    0  502    0 -0.00000000000E+00  0.00000000000E+00  0.10936293167E+04  0.10936293167E+04  0.00000000000E+00 0.  1.
         21   -1    0    0  501  502  0.00000000000E+00 -0.00000000000E+00 -0.14683194860E+03  0.14683194860E+03  0.00000000000E+00 0.  1.
         25    1    1    2    0    0  0.26395561495E+03  0.28795458842E+03  0.45939572203E+03  0.61584075951E+03  0.12500000000E+03 0.  0.
          1    1    1    2  501    0 -0.26395561495E+03 -0.28795458842E+03  0.48740164604E+03  0.62462050576E+03  0.00000000000E+00 0.  1.
<mgrwt>
<rscale>  3 0.41014072E+03</rscale>
<asrwt>0</asrwt>
<pdfrwt beam="1">  1       21 0.22589531E-01 0.41014072E+03</pdfrwt>
<pdfrwt beam="2">  1        1 0.16825066E+00 0.41014072E+03</pdfrwt>
<totfact> 0.26324635E+03</totfact>
</mgrwt>
</event>
<event>
 4    0  0.1002184E-001  0.3747568E+03  0.7546771E-02  0.1052889E+00
         21   -1    0    0  501  502  0.00000000000E+00  0.00000000000E+00  0.70418568330E+02  0.70418568330E+02  0.00000000000E+00 0. -1.
          1   -1    0    0  502    0 -0.00000000000E+00 -0.00000000000E+00 -0.20645260849E+04  0.20645260849E+04  0.00000000000E+00 0.  1.
         25    1    1    2    0    0  0.20560039582E+03  0.28730844133E+03 -0.70641084908E+03  0.79966177283E+03  0.12500000000E+03 0.  0.
          1    1    1    2  501    0 -0.20560039582E+03 -0.28730844133E+03 -0.12876966674E+04  0.13352828804E+04  0.00000000000E+00 0.  1.
<mgrwt>
<rscale>  3 0.37475681E+03</rscale>
<asrwt>0</asrwt>
<pdfrwt beam="1">  1       21 0.10833628E-01 0.37475681E+03</pdfrwt>
<pdfrwt beam="2">  1        1 0.31761934E+00 0.37475681E+03</pdfrwt>
<totfact> 0.22978946E+03</totfact>
</mgrwt>
</event>
<event>
 4    0  0.1415078E-001  0.2438809E+03  0.7546771E-02  0.1117234E+00
         21   -1    0    0  501  502  0.00000000000E+00  0.00000000000E+00  0.10358652843E+03  0.10358652843E+03  0.00000000000E+00 0. -1.
          1   -1    0    0  502    0 -0.00000000000E+00 -0.00000000000E+00 -0.94874690144E+03  0.94874690144E+03  0.00000000000E+00 0. -1.
         25    1    1    2    0    0  0.31554940468E-01  0.20941081651E+03 -0.76409216232E+02  0.25557045876E+03  0.12500000000E+03 0.  0.
          1    1    1    2  501    0 -0.31554940468E-01 -0.20941081651E+03 -0.76875115678E+03  0.79676297110E+03  0.00000000000E+00 0. -1.
<mgrwt>
<rscale>  3 0.24388090E+03</rscale>
<asrwt>0</asrwt>
<pdfrwt beam="1">  1       21 0.15936389E-01 0.24388090E+03</pdfrwt>
<pdfrwt beam="2">  1        1 0.14596106E+00 0.24388090E+03</pdfrwt>
<totfact> 0.67884212E+03</totfact>
</mgrwt>
</event>
<event>
 4    0  0.1369553E-001  0.2587849E+03  0.7546771E-02  0.1107875E+00
          1   -1    0    0  502    0 -0.00000000000E+00  0.00000000000E+00  0.61136504592E+03  0.61136504592E+03  0.00000000000E+00 0. -1.
         21   -1    0    0  501  502  0.00000000000E+00 -0.00000000000E+00 -0.42288015087E+03  0.42288015087E+03  0.00000000000E+00 0. -1.
         25    1    1    2    0    0  0.22604565598E+03  0.15748227684E+02 -0.35852236037E+03  0.44216278467E+03  0.12500000000E+03 0.  0.
          1    1    1    2  501    0 -0.22604565598E+03 -0.15748227684E+02  0.54700725541E+03  0.59208241212E+03  0.00000000000E+00 0. -1.
<mgrwt>
<rscale>  3 0.25878494E+03</rscale>
<asrwt>0</asrwt>
<pdfrwt beam="1">  1       21 0.65058485E-01 0.25878494E+03</pdfrwt>
<pdfrwt beam="2">  1        1 0.94056161E-01 0.25878494E+03</pdfrwt>
<totfact> 0.80054957E+02</totfact>
</mgrwt>
</event>
<event>
 4    0  0.1333711E-001  0.2375968E+03  0.7546771E-02  0.1121404E+00
         21   -1    0    0  501  502  0.00000000000E+00  0.00000000000E+00  0.86582470381E+02  0.86582470381E+02  0.00000000000E+00 0.  1.
          2   -1    0    0  502    0 -0.00000000000E+00 -0.00000000000E+00 -0.19567471894E+04  0.19567471894E+04  0.00000000000E+00 0. -1.
         25    1    1    2    0    0  0.46622837127E+02 -0.19660505139E+03 -0.93691531993E+02  0.25540230684E+03  0.12500000000E+03 0.  0.
          2    1    1    2  501    0 -0.46622837127E+02  0.19660505139E+03 -0.17764731870E+04  0.17879273529E+04  0.00000000000E+00 0. -1.
<mgrwt>
<rscale>  3 0.23759679E+03</rscale>
<asrwt>0</asrwt>
<pdfrwt beam="1">  1       21 0.13320380E-01 0.23759679E+03</pdfrwt>
<pdfrwt beam="2">  1        2 0.30103804E+00 0.23759679E+03</pdfrwt>
<totfact> 0.48330297E+03</totfact>
</mgrwt>
</event>
<event>
 4    0  0.1557807E-001  0.3236298E+03  0.7546771E-02  0.1073991E+00
         21   -1    0    0  501  502  0.00000000000E+00  0.00000000000E+00  0.41209288712E+03  0.41209288712E+03  0.00000000000E+00 0. -1.
         -1   -1    0    0    0  501 -0.00000000000E+00 -0.00000000000E+00 -0.23699055362E+03  0.23699055362E+03  0.00000000000E+00 0. -1.
         25    1    1    2    0    0 -0.20296055323E+03  0.21890239963E+03  0.59991273813E+02  0.32914312945E+03  0.12500000000E+03 0.  0.
         -1    1    1    2    0  502  0.20296055323E+03 -0.21890239963E+03  0.11511105969E+03  0.31994031130E+03  0.00000000000E+00 0. -1.
<mgrwt>
<rscale>  3 0.32362980E+03</rscale>
<asrwt>0</asrwt>
<pdfrwt beam="1">  1       21 0.63398906E-01 0.32362980E+03</pdfrwt>
<pdfrwt beam="2">  1       -1 0.36460085E-01 0.32362980E+03</pdfrwt>
<totfact> 0.14796112E+03</totfact>
</mgrwt>
</event>
<event>
 4    0  0.1002184E-001  0.6048845E+03  0.7546771E-02  0.9895324E-01
          1   -1    0    0  502    0 -0.00000000000E+00  0.00000000000E+00  0.39258165475E+04  0.39258165475E+04  0.00000000000E+00 0. -1.
         21   -1    0    0  501  502  0.00000000000E+00 -0.00000000000E+00 -0.16718399591E+03  0.16718399591E+03  0.00000000000E+00 0.  1.
         25    1    1    2    0    0 -0.58337851941E+03  0.99647985344E+02  0.51086499361E+03  0.79175012446E+03  0.12500000000E+03 0.  0.
          1    1    1    2  501    0  0.58337851941E+03 -0.99647985344E+02  0.32477675579E+04  0.33012504189E+04  0.00000000000E+00 0. -1.
<mgrwt>
<rscale>  3 0.60488447E+03</rscale>
<asrwt>0</asrwt>
<pdfrwt beam="1">  1       21 0.25720618E-01 0.60488447E+03</pdfrwt>
<pdfrwt beam="2">  1        1 0.60397171E+00 0.60488447E+03</pdfrwt>
<totfact> 0.19005907E+01</totfact>
</mgrwt>
</event>
<event>
 4    0  0.1002184E-001  0.5385249E+03  0.7546771E-02  0.1004185E+00
          1   -1    0    0  502    0 -0.00000000000E+00  0.00000000000E+00  0.53765035520E+03  0.53765035520E+03  0.00000000000E+00 0.  1.
         21   -1    0    0  501  502  0.00000000000E+00 -0.00000000000E+00 -0.63882270654E+03  0.63882270654E+03  0.00000000000E+00 0.  1.
         25    1    1    2    0    0  0.24373054519E+02  0.52324943348E+03  0.19737011450E+03  0.57355381397E+03  0.12500000000E+03 0.  0.
          1    1    1    2  501    0 -0.24373054519E+02 -0.52324943348E+03 -0.29854246584E+03  0.60291924777E+03  0.00000000000E+00 0.  1.
<mgrwt>
<rscale>  3 0.53852485E+03</rscale>
<asrwt>0</asrwt>
<pdfrwt beam="1">  1       21 0.98280416E-01 0.53852485E+03</pdfrwt>
<pdfrwt beam="2">  1        1 0.82715440E-01 0.53852485E+03</pdfrwt>
<totfact> 0.33950415E+02</totfact>
</mgrwt>
</event>
<event>
 4    0  0.1026382E-001  0.2400388E+03  0.7546771E-02  0.1119767E+00
          1   -1    0    0  502    0 -0.00000000000E+00  0.00000000000E+00  0.23488765162E+03  0.23488765162E+03  0.00000000000E+00 0.  1.
         21   -1    0    0  501  502  0.00000000000E+00 -0.00000000000E+00 -0.50727654433E+03  0.50727654433E+03  0.00000000000E+00 0.  1.
         25    1    1    2    0    0 -0.17909911873E+03 -0.99584890177E+02 -0.42401479311E+03  0.48724448633E+03  0.12500000000E+03 0.  0.
          1    1    1    2  501    0  0.17909911873E+03  0.99584890177E+02  0.15162590040E+03  0.25491970962E+03  0.00000000000E+00 0.  1.
<mgrwt>
<rscale>  3 0.24003884E+03</rscale>
<asrwt>0</asrwt>
<pdfrwt beam="1">  1       21 0.78042545E-01 0.24003884E+03</pdfrwt>
<pdfrwt beam="2">  1        1 0.36136562E-01 0.24003884E+03</pdfrwt>
<totfact> 0.18567484E+03</totfact>
</mgrwt>
</event>
<event>
 4    0  0.1002184E-001  0.2989748E+03  0.7546771E-02  0.1085754E+00
         21   -1    0    0  501  502  0.00000000000E+00  0.00000000000E+00  0.47161425682E+02  0.47161425682E+02  0.00000000000E+00 0. -1.
          2   -1    0    0  502    0 -0.00000000000E+00 -0.00000000000E+00 -0.20264791057E+04  0.20264791057E+04  0.00000000000E+00 0.  1.
         25    1    1    2    0    0 -0.32642189157E+02  0.26962088379E+03 -0.63104893820E+03  0.69828983659E+03  0.12500000000E+03 0.  0.
          2    1    1    2  501    0  0.32642189157E+02 -0.26962088379E+03 -0.13482687418E+04  0.13753506948E+04  0.00000000000E+00 0.  1.
<mgrwt>
<rscale>  3 0.29897480E+03</rscale>
<asrwt>0</asrwt>
<pdfrwt beam="1">  1       21 0.72556044E-02 0.29897480E+03</pdfrwt>
<pdfrwt beam="2">  1        2 0.31176600E+00 0.29897480E+03</pdfrwt>
<totfact> 0.12811937E+04</totfact>
</mgrwt>
</event>
<event>
 4    0  0.1002184E-001  0.2531404E+03  0.7546771E-02  0.1111336E+00
         21   -1    0    0  501  502  0.00000000000E+00  0.00000000000E+00  0.56785836455E+02  0.56785836455E+02  0.00000000000E+00 0. -1.
          1   -1    0    0  502    0 -0.00000000000E+00 -0.00000000000E+00 -0.14145450290E+04  0.14145450290E+04  0.00000000000E+00 0.  1.
         25    1    1    2    0    0  0.20644917643E+03  0.76379283155E+02 -0.30769500571E+03  0.39844230936E+03  0.12500000000E+03 0.  0.
          1    1    1    2  501    0 -0.20644917643E+03 -0.76379283155E+02 -0.10500641868E+04  0.10728885561E+04  0.00000000000E+00 0.  1.
<mgrwt>
<rscale>  3 0.25314039E+03</rscale>
<asrwt>0</asrwt>
<pdfrwt beam="1">  1       21 0.87362819E-02 0.25314039E+03</pdfrwt>
<pdfrwt beam="2">  1        1 0.21762233E+00 0.25314039E+03</pdfrwt>
<totfact> 0.93457574E+03</totfact>
</mgrwt>
</event>
<event>
 4    0  0.1002184E-001  0.2733896E+03  0.7546771E-02  0.1099355E+00
         21   -1    0    0  501  502  0.00000000000E+00  0.00000000000E+00  0.30473662540E+02  0.30473662540E+02  0.00000000000E+00 0. -1.
          2   -1    0    0  502    0 -0.00000000000E+00 -0.00000000000E+00 -0.26565798991E+04  0.26565798991E+04  0.00000000000E+00 0.  1.
         25    1    1    2    0    0 -0.18814676879E+03 -0.15400533701E+03 -0.81342915395E+03  0.85814266816E+03  0.12500000000E+03 0.  0.
          2    1    1    2  501    0  0.18814676879E+03  0.15400533701E+03 -0.18126770827E+04  0.18289108935E+04  0.00000000000E+00 0.  1.
<mgrwt>
<rscale>  3 0.27338956E+03</rscale>
<asrwt>0</asrwt>
<pdfrwt beam="1">  1       21 0.46882567E-02 0.27338956E+03</pdfrwt>
<pdfrwt beam="2">  1        2 0.40870452E+00 0.27338956E+03</pdfrwt>
<totfact> 0.12501910E+04</totfact>
</mgrwt>
</event>
<event>
 4    0  0.1002184E-001  0.3811722E+03  0.7546771E-02  0.1050501E+00
         -2   -1    0    0    0  501 -0.00000000000E+00  0.00000000000E+00  0.43114645644E+03  0.43114645644E+03  0.00000000000E+00 0. -1.
         21   -1    0    0  501  502  0.00000000000E+00 -0.00000000000E+00 -0.44514611958E+03  0.44514611958E+03  0.00000000000E+00 0.  1.
         25    1    1    2    0    0 -0.35992403254E+03  0.11042934874E+02 -0.24067354194E+03  0.45079486399E+03  0.12500000000E+03 0.  0.
         -2    1    1    2    0  502  0.35992403254E+03 -0.11042934874E+02  0.22667387879E+03  0.42549771203E+03  0.00000000000E+00 0. -1.
<mgrwt>
<rscale>  3 0.38117221E+03</rscale>
<asrwt>0</asrwt>
<pdfrwt beam="1">  1       21 0.68484019E-01 0.38117221E+03</pdfrwt>
<pdfrwt beam="2">  1       -2 0.66330224E-01 0.38117221E+03</pdfrwt>
<totfact> 0.31780916E+02</totfact>
</mgrwt>
</event>
<event>
 4    0  0.1690798E-001  0.2675074E+03  0.7546771E-02  0.1102715E+00
          2   -1    0    0  502    0 -0.00000000000E+00  0.00000000000E+00  0.11290045529E+04  0.11290045529E+04  0.00000000000E+00 0.  1.
         21   -1    0    0  501  502  0.00000000000E+00 -0.00000000000E+00 -0.32996597483E+03  0.32996597483E+03  0.00000000000E+00 0.  1.
         25    1    1    2    0    0  0.17610673506E+03  0.15786589815E+03 -0.26047984179E+03  0.37337644799E+03  0.12500000000E+03 0.  0.
          2    1    1    2  501    0 -0.17610673506E+03 -0.15786589815E+03  0.10595184198E+04  0.10855940797E+04  0.00000000000E+00 0.  1.
<mgrwt>
<rscale>  3 0.26750743E+03</rscale>
<asrwt>0</asrwt>
<pdfrwt beam="1">  1       21 0.50763997E-01 0.26750743E+03</pdfrwt>
<pdfrwt beam="2">  1        2 0.17369301E+00 0.26750743E+03</pdfrwt>
<totfact> 0.99442311E+02</totfact>
</mgrwt>
</event>
<event>
 4    0  0.1372112E-001  0.3022824E+03  0.7546771E-02  0.1084105E+00
         21   -1    0    0  501  502  0.00000000000E+00  0.00000000000E+00  0.50832675805E+02  0.50832675805E+02  0.00000000000E+00 0. -1.
          1   -1    0    0  502    0 -0.00000000000E+00 -0.00000000000E+00 -0.21477836095E+04  0.21477836095E+04  0.00000000000E+00 0. -1.
         25    1    1    2    0    0 -0.84801498238E+02  0.26183653978E+03 -0.55205789032E+03  0.62939858749E+03  0.12500000000E+03 0.  0.
          1    1    1    2  501    0  0.84801498238E+02 -0.26183653978E+03 -0.15448930434E+04  0.15692176978E+04  0.00000000000E+00 0. -1.
<mgrwt>
<rscale>  3 0.30228243E+03</rscale>
<asrwt>0</asrwt>
<pdfrwt beam="1">  1       21 0.78204111E-02 0.30228243E+03</pdfrwt>
<pdfrwt beam="2">  1        1 0.33042827E+00 0.30228243E+03</pdfrwt>
<totfact> 0.37008623E+03</totfact>
</mgrwt>
</event>
<event>
 4    0  0.1459552E-001  0.3401300E+03  0.7546771E-02  0.1066741E+00
          2   -1    0    0  502    0 -0.00000000000E+00  0.00000000000E+00  0.87074912847E+03  0.87074912847E+03  0.00000000000E+00 0. -1.
         21   -1    0    0  501  502  0.00000000000E+00 -0.00000000000E+00 -0.14094721360E+03  0.14094721360E+03  0.00000000000E+00 0. -1.
         25    1    1    2    0    0  0.31009203468E+03  0.62500508859E+02  0.55323025111E+03  0.64942443311E+03  0.12500000000E+03 0.  0.
          2    1    1    2  501    0 -0.31009203468E+03 -0.62500508859E+02  0.17657166377E+03  0.36227190896E+03  0.00000000000E+00 0. -1.
<mgrwt>
<rscale>  3 0.34012995E+03</rscale>
<asrwt>0</asrwt>
<pdfrwt beam="1">  1       21 0.21684187E-01 0.34012995E+03</pdfrwt>
<pdfrwt beam="2">  1        2 0.13396140E+00 0.34012995E+03</pdfrwt>
<totfact> 0.76911630E+03</totfact>
</mgrwt>
</event>
<event>
 4    0  0.1191478E-001  0.2430533E+03  0.7546771E-02  0.1117775E+00
         21   -1    0    0  501  502  0.00000000000E+00  0.00000000000E+00  0.98699757132E+03  0.98699757132E+03  0.00000000000E+00 0.  1.
         -1   -1    0    0    0  501 -0.00000000000E+00 -0.00000000000E+00 -0.56844287992E+02  0.56844287992E+02  0.00000000000E+00 0.  1.
         25    1    1    2    0    0 -0.28299145737E+02  0.20651654110E+03  0.33987227457E+03  0.41783739232E+03  0.12500000000E+03 0.  0.
         -1    1    1    2    0  502  0.28299145737E+02 -0.20651654110E+03  0.59028100875E+03  0.62600446699E+03  0.00000000000E+00 0.  1.
<mgrwt>
<rscale>  3 0.24305333E+03</rscale>
<asrwt>0</asrwt>
<pdfrwt beam="1">  1       21 0.15184577E+00 0.24305333E+03</pdfrwt>
<pdfrwt beam="2">  1       -1 0.87452758E-02 0.24305333E+03</pdfrwt>
<totfact> 0.18991175E+03</totfact>
</mgrwt>
</event>
<event>
 4    0  0.1002184E-001  0.3116465E+03  0.7546771E-02  0.1079559E+00
          2   -1    0    0  502    0 -0.00000000000E+00  0.00000000000E+00  0.11520639712E+03  0.11520639712E+03  0.00000000000E+00 0.  1.
         21   -1    0    0  501  502  0.00000000000E+00 -0.00000000000E+00 -0.85792680603E+03  0.85792680603E+03  0.00000000000E+00 0. -1.
         25    1    1    2    0    0  0.14758666493E+03  0.24437009222E+03 -0.53832318940E+03  0.62202525823E+03  0.12500000000E+03 0.  0.
          2    1    1    2  501    0 -0.14758666493E+03 -0.24437009222E+03 -0.20439721951E+03  0.35110794491E+03  0.00000000000E+00 0.  1.
<mgrwt>
<rscale>  3 0.31164654E+03</rscale>
<asrwt>0</asrwt>
<pdfrwt beam="1">  1       21 0.13198874E+00 0.31164654E+03</pdfrwt>
<pdfrwt beam="2">  1        2 0.17724061E-01 0.31164654E+03</pdfrwt>
<totfact> 0.15507390E+03</totfact>
</mgrwt>
</event>
<event>
 4    0  0.1002184E-001  0.2736200E+03  0.7546771E-02  0.1099225E+00
         21   -1    0    0  501  502  0.00000000000E+00  0.00000000000E+00  0.73782576982E+02  0.73782576982E+02  0.00000000000E+00 0. -1.
          1   -1    0    0  502    0 -0.00000000000E+00 -0.00000000000E+00 -0.11518830316E+04  0.11518830316E+04  0.00000000000E+00 0.  1.
         25    1    1    2    0    0 -0.16710175548E+03  0.17697435953E+03 -0.28091078284E+03  0.39214638661E+03  0.12500000000E+03 0.  0.
          1    1    1    2  501    0  0.16710175548E+03 -0.17697435953E+03 -0.79718967175E+03  0.83351922194E+03  0.00000000000E+00 0.  1.
<mgrwt>
<rscale>  3 0.27362003E+03</rscale>
<asrwt>0</asrwt>
<pdfrwt beam="1">  1       21 0.11351166E-01 0.27362003E+03</pdfrwt>
<pdfrwt beam="2">  1        1 0.17721276E+00 0.27362003E+03</pdfrwt>
<totfact> 0.88463379E+03</totfact>
</mgrwt>
</event>
<event>
 4    0  0.1002184E-001  0.2739903E+03  0.7546771E-02  0.1099017E+00
          2   -1    0    0  502    0 -0.00000000000E+00  0.00000000000E+00  0.41296369925E+04  0.41296369925E+04  0.00000000000E+00 0. -1.
         21   -1    0    0  501  502  0.00000000000E+00 -0.00000000000E+00 -0.79783581284E+02  0.79783581284E+02  0.00000000000E+00 0. -1.
         25    1    1    2    0    0  0.57950724928E+02  0.23682782523E+03  0.17113087098E+03  0.32304253640E+03  0.12500000000E+03 0.  0.
          2    1    1    2  501    0 -0.57950724928E+02 -0.23682782523E+03  0.38787225402E+04  0.38863780373E+04  0.00000000000E+00 0. -1.
<mgrwt>
<rscale>  3 0.27399034E+03</rscale>
<asrwt>0</asrwt>
<pdfrwt beam="1">  1       21 0.12274400E-01 0.27399034E+03</pdfrwt>
<pdfrwt beam="2">  1        2 0.63532860E+00 0.27399034E+03</pdfrwt>
<totfact> 0.24974888E+02</totfact>
</mgrwt>
</event>
<event>
 4    0  0.1002184E-001  0.2528836E+03  0.7546771E-02  0.1111496E+00
         21   -1    0    0  501  502  0.00000000000E+00  0.00000000000E+00  0.34354780458E+02  0.34354780458E+02  0.00000000000E+00 0. -1.
          2   -1    0    0  502    0 -0.00000000000E+00 -0.00000000000E+00 -0.22103850084E+04  0.22103850084E+04  0.00000000000E+00 0.  1.
         25    1    1    2    0    0  0.21582389787E+03  0.41775030959E+02 -0.56797286466E+03  0.62172605149E+03  0.12500000000E+03 0.  0.
          2    1    1    2  501    0 -0.21582389787E+03 -0.41775030959E+02 -0.16080573633E+04  0.16230137373E+04  0.00000000000E+00 0.  1.
<mgrwt>
<rscale>  3 0.25288359E+03</rscale>
<asrwt>0</asrwt>
<pdfrwt beam="1">  1       21 0.52853522E-02 0.25288359E+03</pdfrwt>
<pdfrwt beam="2">  1        2 0.34005914E+00 0.25288359E+03</pdfrwt>
<totfact> 0.17938762E+04</totfact>
</mgrwt>
</event>
<event>
 4    0  0.1019283E-001  0.2752720E+03  0.7546771E-02  0.1098300E+00
         -1   -1    0    0    0  501 -0.00000000000E+00  0.00000000000E+00  0.35833687610E+03  0.35833687610E+03  0.00000000000E+00 0. -1.
         21   -1    0    0  501  502  0.00000000000E+00 -0.00000000000E+00 -0.43359317970E+03  0.43359317970E+03  0.00000000000E+00 0.  1.
         25    1    1    2    0    0  0.24394159733E+03  0.25341229294E+02 -0.33573725464E+03  0.43415917008E+03  0.12500000000E+03 0.  0.
         -1    1    1    2    0  502 -0.24394159733E+03 -0.25341229294E+02  0.26048095104E+03  0.35777088572E+03  0.00000000000E+00 0. -1.
<mgrwt>
<rscale>  3 0.27527201E+03</rscale>
<asrwt>0</asrwt>
<pdfrwt beam="1">  1       21 0.66706643E-01 0.27527201E+03</pdfrwt>
<pdfrwt beam="2">  1       -1 0.55128750E-01 0.27527201E+03</pdfrwt>
<totfact> 0.63102968E+02</totfact>
</mgrwt>
</event>
<event>
 4    0  0.1499813E-001  0.2743886E+03  0.7546771E-02  0.1098794E+00
         21   -1    0    0  501  502  0.00000000000E+00  0.00000000000E+00  0.10415060466E+03  0.10415060466E+03  0.00000000000E+00 0. -1.
          1   -1    0    0  502    0 -0.00000000000E+00 -0.00000000000E+00 -0.76401093145E+03  0.76401093145E+03  0.00000000000E+00 0. -1.
         25    1    1    2    0    0 -0.16587616771E+02  0.24369850189E+03 -0.17555021972E+03  0.32574067676E+03  0.12500000000E+03 0.  0.
          1    1    1    2  501    0  0.16587616771E+02 -0.24369850189E+03 -0.48431010706E+03  0.54242085935E+03  0.00000000000E+00 0. -1.
<mgrwt>
<rscale>  3 0.27438861E+03</rscale>
<asrwt>0</asrwt>
<pdfrwt beam="1">  1       21 0.16023169E-01 0.27438861E+03</pdfrwt>
<pdfrwt beam="2">  1        1 0.11754015E+00 0.27438861E+03</pdfrwt>
<totfact> 0.94127642E+03</totfact>
</mgrwt>
</event>
<event>
 4    0  0.1002184E-001  0.2552381E+03  0.7546771E-02  0.1110038E+00
         21   -1    0    0  501  502  0.00000000000E+00  0.00000000000E+00  0.14193365313E+02  0.14193365313E+02  0.00000000000E+00 0.  1.
          1   -1    0    0  502    0 -0.00000000000E+00 -0.00000000000E+00 -0.40593858008E+04  0.40593858008E+04  0.00000000000E+00 0. -1.
         25    1    1    2    0    0  0.20183981676E+03 -0.93713300857E+02 -0.19612324693E+04  0.19777712944E+04  0.12500000000E+03 0.  0.
          1    1    1    2  501    0 -0.20183981676E+03  0.93713300857E+02 -0.20839599662E+04  0.20958078717E+04  0.00000000000E+00 0. -1.
<mgrwt>
<rscale>  3 0.25523811E+03</rscale>
<asrwt>0</asrwt>
<pdfrwt beam="1">  1       21 0.21835921E-02 0.25523811E+03</pdfrwt>
<pdfrwt beam="2">  1        1 0.62452164E+00 0.25523811E+03</pdfrwt>
<totfact> 0.13529198E+03</totfact>
</mgrwt>
</event>
<event>
 4    0  0.1002184E-001  0.2712165E+03  0.7546771E-02  0.1100585E+00
          2   -1    0    0  502    0 -0.00000000000E+00  0.00000000000E+00  0.35317497584E+03  0.35317497584E+03  0.00000000000E+00 0. -1.
         21   -1    0    0  501  502  0.00000000000E+00 -0.00000000000E+00 -0.28805824403E+03  0.28805824403E+03  0.00000000000E+00 0.  1.
         25    1    1    2    0    0  0.12051371073E+03  0.20835033381E+03 -0.15728204211E+03  0.31352201971E+03  0.12500000000E+03 0.  0.
          2    1    1    2  501    0 -0.12051371073E+03 -0.20835033381E+03  0.22239877392E+03  0.32771120017E+03  0.00000000000E+00 0. -1.
<mgrwt>
<rscale>  3 0.27121655E+03</rscale>
<asrwt>0</asrwt>
<pdfrwt beam="1">  1       21 0.44316653E-01 0.27121655E+03</pdfrwt>
<pdfrwt beam="2">  1        2 0.54334612E-01 0.27121655E+03</pdfrwt>
<totfact> 0.54505732E+03</totfact>
</mgrwt>
</event>
<event>
 4    0  0.1002184E-001  0.2707381E+03  0.7546771E-02  0.1100858E+00
         -4   -1    0    0    0  501 -0.00000000000E+00  0.00000000000E+00  0.11928632332E+03  0.11928632332E+03  0.00000000000E+00 0.  1.
         21   -1    0    0  501  502  0.00000000000E+00 -0.00000000000E+00 -0.84635546410E+03  0.84635546410E+03  0.00000000000E+00 0. -1.
         25    1    1    2    0    0  0.65595824852E+02 -0.23102236401E+03 -0.66440108844E+03  0.71744543432E+03  0.12500000000E+03 0.  0.
         -4    1    1    2    0  502 -0.65595824852E+02  0.23102236401E+03 -0.62668052348E+02  0.24819635311E+03  0.00000000000E+00 0.  1.
<mgrwt>
<rscale>  3 0.27073815E+03</rscale>
<asrwt>0</asrwt>
<pdfrwt beam="1">  1       21 0.13020853E+00 0.27073815E+03</pdfrwt>
<pdfrwt beam="2">  1       -4 0.18351742E-01 0.27073815E+03</pdfrwt>
<totfact> 0.47087529E+02</totfact>
</mgrwt>
</event>
<event>
 4    0  0.1002184E-001  0.2884794E+03  0.7546771E-02  0.1091146E+00
         21   -1    0    0  501  502  0.00000000000E+00  0.00000000000E+00  0.80983095988E+02  0.80983095988E+02  0.00000000000E+00 0. -1.
         -4   -1    0    0    0  501 -0.00000000000E+00 -0.00000000000E+00 -0.94262444073E+03  0.94262444073E+03  0.00000000000E+00 0.  1.
         25    1    1    2    0    0  0.25972943688E+03  0.11660126220E+02 -0.39063271288E+03  0.48560709972E+03  0.12500000000E+03 0.  0.
         -4    1    1    2    0  502 -0.25972943688E+03 -0.11660126220E+02 -0.47100863186E+03  0.53800043700E+03  0.00000000000E+00 0.  1.
<mgrwt>
<rscale>  3 0.28847936E+03</rscale>
<asrwt>0</asrwt>
<pdfrwt beam="1">  1       21 0.12458939E-01 0.28847936E+03</pdfrwt>
<pdfrwt beam="2">  1       -4 0.14501913E+00 0.28847936E+03</pdfrwt>
<totfact> 0.79763535E+02</totfact>
</mgrwt>
</event>
<event>
 4    0  0.1086855E-001  0.2433189E+03  0.7546771E-02  0.1117601E+00
          1   -1    0    0  502    0 -0.00000000000E+00  0.00000000000E+00  0.22973881002E+03  0.22973881002E+03  0.00000000000E+00 0. -1.
         21   -1    0    0  501  502  0.00000000000E+00 -0.00000000000E+00 -0.79918136871E+03  0.79918136871E+03  0.00000000000E+00 0.  1.
         25    1    1    2    0    0 -0.16492339518E+03 -0.12798196448E+03 -0.72747836265E+03  0.76709117948E+03  0.12500000000E+03 0.  0.
          1    1    1    2  501    0  0.16492339518E+03  0.12798196448E+03  0.15803580397E+03  0.26182899925E+03  0.00000000000E+00 0. -1.
<mgrwt>
<rscale>  3 0.24331895E+03</rscale>
<asrwt>0</asrwt>
<pdfrwt beam="1">  1       21 0.12295098E+00 0.24331895E+03</pdfrwt>
<pdfrwt beam="2">  1        1 0.35344432E-01 0.24331895E+03</pdfrwt>
<totfact> 0.64705089E+02</totfact>
</mgrwt>
</event>
<event>
 4    0  0.1002184E-001  0.3015775E+03  0.7546771E-02  0.1084455E+00
         21   -1    0    0  501  502  0.00000000000E+00  0.00000000000E+00  0.50962803562E+02  0.50962803562E+02  0.00000000000E+00 0. -1.
          2   -1    0    0  502    0 -0.00000000000E+00 -0.00000000000E+00 -0.19593944481E+04  0.19593944481E+04  0.00000000000E+00 0.  1.
         25    1    1    2    0    0 -0.14474079118E+03 -0.23318253405E+03 -0.57835713192E+03  0.65226218874E+03  0.12500000000E+03 0.  0.
          2    1    1    2  501    0  0.14474079118E+03  0.23318253405E+03 -0.13300745126E+04  0.13580950629E+04  0.00000000000E+00 0.  1.
<mgrwt>
<rscale>  3 0.30157750E+03</rscale>
<asrwt>0</asrwt>
<pdfrwt beam="1">  1       21 0.78404319E-02 0.30157750E+03</pdfrwt>
<pdfrwt beam="2">  1        2 0.30144528E+00 0.30157750E+03</pdfrwt>
<totfact> 0.12128062E+04</totfact>
</mgrwt>
</event>
<event>
 4    0  0.1186645E-001  0.4029189E+03  0.7546771E-02  0.1042774E+00
          2   -1    0    0  502    0 -0.00000000000E+00  0.00000000000E+00  0.24652666033E+04  0.24652666033E+04  0.00000000000E+00 0.  1.
         21   -1    0    0  501  502  0.00000000000E+00 -0.00000000000E+00 -0.15246449108E+03  0.15246449108E+03  0.00000000000E+00 0. -1.
         25    1    1    2    0    0 -0.74180461264E+02  0.37578701332E+03  0.16393494671E+03  0.43499228380E+03  0.12500000000E+03 0.  0.
          2    1    1    2  501    0  0.74180461264E+02 -0.37578701332E+03  0.21488671655E+04  0.21827388106E+04  0.00000000000E+00 0.  1.
<mgrwt>
<rscale>  3 0.40291888E+03</rscale>
<asrwt>0</asrwt>
<pdfrwt beam="1">  1       21 0.23456077E-01 0.40291888E+03</pdfrwt>
<pdfrwt beam="2">  1        2 0.37927176E+00 0.40291888E+03</pdfrwt>
<totfact> 0.83966958E+02</totfact>
</mgrwt>
</event>
<event>
 4    0  0.1328910E-001  0.2466321E+03  0.7546771E-02  0.1115452E+00
          2   -1    0    0  502    0 -0.00000000000E+00  0.00000000000E+00  0.31934538082E+04  0.31934538082E+04  0.00000000000E+00 0.  1.
         21   -1    0    0  501  502  0.00000000000E+00 -0.00000000000E+00 -0.18423387591E+02  0.18423387591E+02  0.00000000000E+00 0.  1.
         25    1    1    2    0    0 -0.71836517872E+02 -0.20010467973E+03  0.22091193197E+04  0.22228440199E+04  0.12500000000E+03 0.  0.
          2    1    1    2  501    0  0.71836517872E+02  0.20010467973E+03  0.96591110091E+03  0.98903317589E+03  0.00000000000E+00 0.  1.
<mgrwt>
<rscale>  3 0.24663205E+03</rscale>
<asrwt>0</asrwt>
<pdfrwt beam="1">  1       21 0.28343699E-02 0.24663205E+03</pdfrwt>
<pdfrwt beam="2">  1        2 0.49130015E+00 0.24663205E+03</pdfrwt>
<totfact> 0.14274793E+04</totfact>
</mgrwt>
</event>
<event>
 4    0  0.1180337E-001  0.3261976E+03  0.7546771E-02  0.1072832E+00
         21   -1    0    0  501  502  0.00000000000E+00  0.00000000000E+00  0.18324591201E+04  0.18324591201E+04  0.00000000000E+00 0. -1.
          1   -1    0    0  502    0 -0.00000000000E+00 -0.00000000000E+00 -0.46986560933E+03  0.46986560933E+03  0.00000000000E+00 0.  1.
         25    1    1    2    0    0 -0.29527468831E+03  0.59939250773E+02  0.17676508705E+04  0.17974967191E+04  0.12500000000E+03 0.  0.
          1    1    1    2  501    0  0.29527468831E+03 -0.59939250773E+02 -0.40505735971E+03  0.50482801031E+03  0.00000000000E+00 0.  1.
<mgrwt>
<rscale>  3 0.32619757E+03</rscale>
<asrwt>0</asrwt>
<pdfrwt beam="1">  1       21 0.28191678E+00 0.32619757E+03</pdfrwt>
<pdfrwt beam="2">  1        1 0.72287018E-01 0.32619757E+03</pdfrwt>
<totfact> 0.20561968E+01</totfact>
</mgrwt>
</event>
<event>
 4    0  0.1184763E-001  0.3526974E+03  0.7546771E-02  0.1061513E+00
          2   -1    0    0  502    0 -0.00000000000E+00  0.00000000000E+00  0.39421947865E+03  0.39421947865E+03  0.00000000000E+00 0.  1.
         21   -1    0    0  501  502  0.00000000000E+00 -0.00000000000E+00 -0.48547540164E+03  0.48547540164E+03  0.00000000000E+00 0.  1.
         25    1    1    2    0    0  0.30198985959E+03  0.13256166868E+03 -0.32168682932E+03  0.47736557004E+03  0.12500000000E+03 0.  0.
          2    1    1    2  501    0 -0.30198985959E+03 -0.13256166868E+03  0.23043090633E+03  0.40232931025E+03  0.00000000000E+00 0.  1.
<mgrwt>
<rscale>  3 0.35269742E+03</rscale>
<asrwt>0</asrwt>
<pdfrwt beam="1">  1       21 0.74688524E-01 0.35269742E+03</pdfrwt>
<pdfrwt beam="2">  1        2 0.60649150E-01 0.35269742E+03</pdfrwt>
<totfact> 0.15337891E+03</totfact>
</mgrwt>
</event>
<event>
 4    0  0.1002184E-001  0.3873227E+03  0.7546771E-02  0.1048260E+00
          2   -1    0    0  502    0 -0.00000000000E+00  0.00000000000E+00  0.21757258568E+03  0.21757258568E+03  0.00000000000E+00 0.  1.
         21   -1    0    0  501  502  0.00000000000E+00 -0.00000000000E+00 -0.88192823744E+03  0.88192823744E+03  0.00000000000E+00 0. -1.
         25    1    1    2    0    0 -0.28231246001E+02 -0.36550909475E+03 -0.61888456933E+03  0.73009383763E+03  0.12500000000E+03 0.  0.
          2    1    1    2  501    0  0.28231246001E+02  0.36550909475E+03 -0.45471082424E+02  0.36940698549E+03  0.00000000000E+00 0.  1.
<mgrwt>
<rscale>  3 0.38732274E+03</rscale>
<asrwt>0</asrwt>
<pdfrwt beam="1">  1       21 0.13568127E+00 0.38732274E+03</pdfrwt>
<pdfrwt beam="2">  1        2 0.33472706E-01 0.38732274E+03</pdfrwt>
<totfact> 0.68528657E+02</totfact>
</mgrwt>
</event>
<event>
 4    0  0.1024110E-001  0.2900590E+03  0.7546771E-02  0.1090318E+00
         21   -1    0    0  501  502  0.00000000000E+00  0.00000000000E+00  0.80737631770E+02  0.80737631770E+02  0.00000000000E+00 0. -1.
          1   -1    0    0  502    0 -0.00000000000E+00 -0.00000000000E+00 -0.12017942213E+04  0.12017942213E+04  0.00000000000E+00 0.  1.
         25    1    1    2    0    0 -0.25936592186E+03 -0.35192803257E+02 -0.28572207432E+03  0.40715024079E+03  0.12500000000E+03 0.  0.
          1    1    1    2  501    0  0.25936592186E+03  0.35192803257E+02 -0.83533451525E+03  0.87538161232E+03  0.00000000000E+00 0.  1.
<mgrwt>
<rscale>  3 0.29005899E+03</rscale>
<asrwt>0</asrwt>
<pdfrwt beam="1">  1       21 0.12421175E-01 0.29005899E+03</pdfrwt>
<pdfrwt beam="2">  1        1 0.18489140E+00 0.29005899E+03</pdfrwt>
<totfact> 0.69052038E+03</totfact>
</mgrwt>
</event>
<event>
 4    0  0.1035073E-001  0.2455510E+03  0.7546771E-02  0.1116149E+00
         21   -1    0    0  501  502  0.00000000000E+00  0.00000000000E+00  0.59357602412E+02  0.59357602412E+02  0.00000000000E+00 0. -1.
          1   -1    0    0  502    0 -0.00000000000E+00 -0.00000000000E+00 -0.12664113689E+04  0.12664113689E+04  0.00000000000E+00 0.  1.
         25    1    1    2    0    0  0.15987745779E+03  0.13823701904E+03 -0.26908536487E+03  0.36428314335E+03  0.12500000000E+03 0.  0.
          1    1    1    2  501    0 -0.15987745779E+03 -0.13823701904E+03 -0.93796840161E+03  0.96148582796E+03  0.00000000000E+00 0.  1.
<mgrwt>
<rscale>  3 0.24555096E+03</rscale>
<asrwt>0</asrwt>
<pdfrwt beam="1">  1       21 0.91319392E-02 0.24555096E+03</pdfrwt>
<pdfrwt beam="2">  1        1 0.19483251E+00 0.24555096E+03</pdfrwt>
<totfact> 0.10915469E+04</totfact>
</mgrwt>
</event>
<event>
 4    0  0.1241740E-001  0.3369131E+03  0.7546771E-02  0.1068118E+00
         21   -1    0    0  501  502  0.00000000000E+00  0.00000000000E+00  0.40242594408E+03  0.40242594408E+03  0.00000000000E+00 0.  1.
          1   -1    0    0  502    0 -0.00000000000E+00 -0.00000000000E+00 -0.55010950297E+03  0.55010950297E+03  0.00000000000E+00 0. -1.
         25    1    1    2    0    0  0.54371808867E+02 -0.30810569091E+03  0.26923920066E+03  0.43127735570E+03  0.12500000000E+03 0.  0.
          1    1    1    2  501    0 -0.54371808867E+02  0.30810569091E+03 -0.41692275954E+03  0.52125809135E+03  0.00000000000E+00 0. -1.
<mgrwt>
<rscale>  3 0.33691306E+03</rscale>
<asrwt>0</asrwt>
<pdfrwt beam="1">  1       21 0.61911684E-01 0.33691306E+03</pdfrwt>
<pdfrwt beam="2">  1        1 0.84632231E-01 0.33691306E+03</pdfrwt>
<totfact> 0.10042485E+03</totfact>
</mgrwt>
</event>
<event>
 4    0  0.1223317E-001  0.4767889E+03  0.7546771E-02  0.1020021E+00
         -1   -1    0    0    0  501 -0.00000000000E+00  0.00000000000E+00  0.44152851232E+03  0.44152851232E+03  0.00000000000E+00 0.  1.
         21   -1    0    0  501  502  0.00000000000E+00 -0.00000000000E+00 -0.63010146970E+03  0.63010146970E+03  0.00000000000E+00 0.  1.
         25    1    1    2    0    0  0.53618011286E+02 -0.45697680673E+03 -0.34183107154E+03  0.58666530023E+03  0.12500000000E+03 0.  0.
         -1    1    1    2    0  502 -0.53618011286E+02  0.45697680673E+03  0.15325811416E+03  0.48496468178E+03  0.00000000000E+00 0.  1.
<mgrwt>
<rscale>  3 0.47678894E+03</rscale>
<asrwt>0</asrwt>
<pdfrwt beam="1">  1       21 0.96938687E-01 0.47678894E+03</pdfrwt>
<pdfrwt beam="2">  1       -1 0.67927464E-01 0.47678894E+03</pdfrwt>
<totfact> 0.16720197E+02</totfact>
</mgrwt>
</event>
<event>
 4    0  0.1382845E-001  0.3771562E+03  0.7546771E-02  0.1051990E+00
          2   -1    0    0  502    0 -0.00000000000E+00  0.00000000000E+00  0.58590233077E+03  0.58590233077E+03  0.00000000000E+00 0. -1.
         21   -1    0    0  501  502  0.00000000000E+00 -0.00000000000E+00 -0.60294510667E+03  0.60294510667E+03  0.00000000000E+00 0. -1.
         25    1    1    2    0    0 -0.16070170295E+03 -0.31748505766E+03 -0.47650537317E+03  0.60770401498E+03  0.12500000000E+03 0.  0.
          2    1    1    2  501    0  0.16070170295E+03  0.31748505766E+03  0.45946259727E+03  0.58114342245E+03  0.00000000000E+00 0. -1.
<mgrwt>
<rscale>  3 0.37715620E+03</rscale>
<asrwt>0</asrwt>
<pdfrwt beam="1">  1       21 0.92760785E-01 0.37715620E+03</pdfrwt>
<pdfrwt beam="2">  1        2 0.90138820E-01 0.37715620E+03</pdfrwt>
<totfact> 0.58850584E+02</totfact>
</mgrwt>
</event>
<event>
 4    0  0.1118163E-001  0.2362649E+03  0.7546771E-02  0.1122306E+00
          1   -1    0    0  502    0 -0.00000000000E+00  0.00000000000E+00  0.23734131857E+04  0.23734131857E+04  0.00000000000E+00 0.  1.
         21   -1    0    0  501  502  0.00000000000E+00 -0.00000000000E+00 -0.20465995597E+02  0.20465995597E+02  0.00000000000E+00 0.  1.
         25    1    1    2    0    0  0.19252887242E+03 -0.55935236246E+02  0.11099980060E+04  0.11348641728E+04  0.12500000000E+03 0.  0.
          1    1    1    2  501    0 -0.19252887242E+03  0.55935236246E+02  0.12429491842E+04  0.12590150086E+04  0.00000000000E+00 0.  1.
<mgrwt>
<rscale>  3 0.23626493E+03</rscale>
<asrwt>0</asrwt>
<pdfrwt beam="1">  1       21 0.31486166E-02 0.23626493E+03</pdfrwt>
<pdfrwt beam="2">  1        1 0.36514027E+00 0.23626493E+03</pdfrwt>
<totfact> 0.12731389E+04</totfact>
</mgrwt>
</event>
<event>
 4    0  0.1317895E-001  0.3541509E+03  0.7546771E-02  0.1060924E+00
          2   -1    0    0  502    0 -0.00000000000E+00  0.00000000000E+00  0.18915240217E+04  0.18915240217E+04  0.00000000000E+00 0.  1.
         21   -1    0    0  501  502  0.00000000000E+00 -0.00000000000E+00 -0.73987987534E+02  0.73987987534E+02  0.00000000000E+00 0.  1.
         25    1    1    2    0    0 -0.26505245793E+03 -0.19885933646E+03  0.54053321670E+03  0.64621900275E+03  0.12500000000E+03 0.  0.
          2    1    1    2  501    0  0.26505245793E+03  0.19885933646E+03  0.12770028175E+04  0.13192930065E+04  0.00000000000E+00 0.  1.
<mgrwt>
<rscale>  3 0.35415087E+03</rscale>
<asrwt>0</asrwt>
<pdfrwt beam="1">  1       21 0.11382769E-01 0.35415087E+03</pdfrwt>
<pdfrwt beam="2">  1        2 0.29100366E+00 0.35415087E+03</pdfrwt>
<totfact> 0.66894360E+03</totfact>
</mgrwt>
</event>
<event>
 4    0  0.1359661E-001  0.2838541E+03  0.7546771E-02  0.1093602E+00
          2   -1    0    0  502    0 -0.00000000000E+00  0.00000000000E+00  0.38100668875E+03  0.38100668875E+03  0.00000000000E+00 0. -1.
         21   -1    0    0  501  502  0.00000000000E+00 -0.00000000000E+00 -0.25709345784E+03  0.25709345784E+03  0.00000000000E+00 0. -1.
         25    1    1    2    0    0  0.11082412114E+03 -0.22949110414E+03  0.22673211370E+03  0.36329134877E+03  0.12500000000E+03 0.  0.
          2    1    1    2  501    0 -0.11082412114E+03  0.22949110414E+03 -0.10281888278E+03  0.27480879782E+03  0.00000000000E+00 0. -1.
<mgrwt>
<rscale>  3 0.28385410E+03</rscale>
<asrwt>0</asrwt>
<pdfrwt beam="1">  1       21 0.39552840E-01 0.28385410E+03</pdfrwt>
<pdfrwt beam="2">  1        2 0.58616413E-01 0.28385410E+03</pdfrwt>
<totfact> 0.63193910E+03</totfact>
</mgrwt>
</event>
<event>
 4    0  0.1002184E-001  0.5394141E+03  0.7546771E-02  0.1003974E+00
         -1   -1    0    0    0  501 -0.00000000000E+00  0.00000000000E+00  0.99328236471E+03  0.99328236471E+03  0.00000000000E+00 0. -1.
         21   -1    0    0  501  502  0.00000000000E+00 -0.00000000000E+00 -0.65416104355E+03  0.65416104355E+03  0.00000000000E+00 0.  1.
         25    1    1    2    0    0  0.20105473299E+03 -0.48468504209E+03 -0.44817506032E+03  0.70130484126E+03  0.12500000000E+03 0.  0.
         -1    1    1    2    0  502 -0.20105473299E+03  0.48468504209E+03  0.78729638148E+03  0.94613856700E+03  0.00000000000E+00 0. -1.
<mgrwt>
<rscale>  3 0.53941412E+03</rscale>
<asrwt>0</asrwt>
<pdfrwt beam="1">  1       21 0.10064016E+00 0.53941412E+03</pdfrwt>
<pdfrwt beam="2">  1       -1 0.15281267E+00 0.53941412E+03</pdfrwt>
<totfact> 0.23227387E+01</totfact>
</mgrwt>
</event>
<event>
 4    0  0.1002184E-001  0.2574863E+03  0.7546771E-02  0.1108663E+00
         21   -1    0    0  501  502  0.00000000000E+00  0.00000000000E+00  0.97872746304E+03  0.97872746304E+03  0.00000000000E+00 0.  1.
          4   -1    0    0  502    0 -0.00000000000E+00 -0.00000000000E+00 -0.15878460152E+03  0.15878460152E+03  0.00000000000E+00 0. -1.
         25    1    1    2    0    0  0.15628176040E+03  0.16201914886E+03  0.86966059005E+03  0.90697780299E+03  0.12500000000E+03 0.  0.
          4    1    1    2  501    0 -0.15628176040E+03 -0.16201914886E+03 -0.49717728527E+02  0.23053426158E+03  0.00000000000E+00 0. -1.
<mgrwt>
<rscale>  3 0.25748630E+03</rscale>
<asrwt>0</asrwt>
<pdfrwt beam="1">  1       21 0.15057345E+00 0.25748630E+03</pdfrwt>
<pdfrwt beam="2">  1        4 0.24428401E-01 0.25748630E+03</pdfrwt>
<totfact> 0.19118268E+02</totfact>
</mgrwt>
</event>
<event>
 4    0  0.1351476E-001  0.2419837E+03  0.7546771E-02  0.1118478E+00
          2   -1    0    0  502    0 -0.00000000000E+00  0.00000000000E+00  0.32645592257E+03  0.32645592257E+03  0.00000000000E+00 0. -1.
         21   -1    0    0  501  502  0.00000000000E+00 -0.00000000000E+00 -0.16350898154E+03  0.16350898154E+03  0.00000000000E+00 0. -1.
         25    1    1    2    0    0 -0.20236575972E+03  0.44488310512E+02  0.30130094761E+02  0.24385227719E+03  0.12500000000E+03 0.  0.
          2    1    1    2  501    0  0.20236575972E+03 -0.44488310512E+02  0.13281684627E+03  0.24611262692E+03  0.00000000000E+00 0. -1.
<mgrwt>
<rscale>  3 0.24198370E+03</rscale>
<asrwt>0</asrwt>
<pdfrwt beam="1">  1       21 0.25155228E-01 0.24198370E+03</pdfrwt>
<pdfrwt beam="2">  1        2 0.50223988E-01 0.24198370E+03</pdfrwt>
<totfact> 0.18409344E+04</totfact>
</mgrwt>
</event>
<event>
 4    0  0.1252301E-001  0.2396126E+03  0.7546771E-02  0.1120051E+00
          2   -1    0    0  502    0 -0.00000000000E+00  0.00000000000E+00  0.40474600469E+03  0.40474600469E+03  0.00000000000E+00 0.  1.
         21   -1    0    0  501  502  0.00000000000E+00 -0.00000000000E+00 -0.17006436135E+03  0.17006436135E+03  0.00000000000E+00 0.  1.
         25    1    1    2    0    0 -0.17815125364E+03 -0.10025630713E+03 -0.28787783836E+02  0.24133572631E+03  0.12500000000E+03 0.  0.
          2    1    1    2  501    0  0.17815125364E+03  0.10025630713E+03  0.26346942718E+03  0.33347463974E+03  0.00000000000E+00 0.  1.
<mgrwt>
<rscale>  3 0.23961260E+03</rscale>
<asrwt>0</asrwt>
<pdfrwt beam="1">  1       21 0.26163748E-01 0.23961260E+03</pdfrwt>
<pdfrwt beam="2">  1        2 0.62268616E-01 0.23961260E+03</pdfrwt>
<totfact> 0.13524191E+04</totfact>
</mgrwt>
</event>
<event>
 4    0  0.1455150E-001  0.3601955E+03  0.7546771E-02  0.1058506E+00
          2   -1    0    0  502    0 -0.00000000000E+00  0.00000000000E+00  0.11558351787E+04  0.11558351787E+04  0.00000000000E+00 0.  1.
         21   -1    0    0  501  502  0.00000000000E+00 -0.00000000000E+00 -0.20936789061E+03  0.20936789061E+03  0.00000000000E+00 0.  1.
         25    1    1    2    0    0 -0.14815914317E+03 -0.30358629282E+03 -0.65603724456E-01  0.36019546526E+03  0.12500000000E+03 0.  0.
          2    1    1    2  501    0  0.14815914317E+03  0.30358629282E+03  0.94653289182E+03  0.10050076040E+04  0.00000000000E+00 0.  1.
<mgrwt>
<rscale>  3 0.36019546E+03</rscale>
<asrwt>0</asrwt>
<pdfrwt beam="1">  1       21 0.32210446E-01 0.36019546E+03</pdfrwt>
<pdfrwt beam="2">  1        2 0.17782079E+00 0.36019546E+03</pdfrwt>
<totfact> 0.23569525E+03</totfact>
</mgrwt>
</event>
<event>
 4    0  0.1139470E-001  0.4070552E+03  0.7546771E-02  0.1041364E+00
          2   -1    0    0  502    0 -0.00000000000E+00  0.00000000000E+00  0.12685390377E+04  0.12685390377E+04  0.00000000000E+00 0.  1.
         21   -1    0    0  501  502  0.00000000000E+00 -0.00000000000E+00 -0.18722671839E+04  0.18722671839E+04  0.00000000000E+00 0. -1.
         25    1    1    2    0    0  0.34843426427E+03 -0.16930009020E+03 -0.18196719228E+04  0.18646447017E+04  0.12500000000E+03 0.  0.
          2    1    1    2  501    0 -0.34843426427E+03  0.16930009020E+03  0.12159437766E+04  0.12761615199E+04  0.00000000000E+00 0.  1.
<mgrwt>
<rscale>  3 0.40705523E+03</rscale>
<asrwt>0</asrwt>
<pdfrwt beam="1">  1       21 0.28804110E+00 0.40705523E+03</pdfrwt>
<pdfrwt beam="2">  1        2 0.19515985E+00 0.40705523E+03</pdfrwt>
<totfact> 0.75021194E+00</totfact>
</mgrwt>
</event>
<event>
 4    0  0.1437018E-001  0.2788484E+03  0.7546771E-02  0.1096320E+00
         21   -1    0    0  501  502  0.00000000000E+00  0.00000000000E+00  0.18717923971E+03  0.18717923971E+03  0.00000000000E+00 0.  1.
          2   -1    0    0  502    0 -0.00000000000E+00 -0.00000000000E+00 -0.88439319633E+03  0.88439319633E+03  0.00000000000E+00 0. -1.
         25    1    1    2    0    0 -0.97407333648E+02  0.22944120578E+03  0.50518463489E+02  0.28338766860E+03  0.12500000000E+03 0.  0.
          2    1    1    2  501    0  0.97407333648E+02 -0.22944120578E+03 -0.74773242011E+03  0.78818476745E+03  0.00000000000E+00 0. -1.
<mgrwt>
<rscale>  3 0.27884845E+03</rscale>
<asrwt>0</asrwt>
<pdfrwt beam="1">  1       21 0.28796806E-01 0.27884845E+03</pdfrwt>
<pdfrwt beam="2">  1        2 0.13606049E+00 0.27884845E+03</pdfrwt>
<totfact> 0.44196215E+03</totfact>
</mgrwt>
</event>
<event>
 4    0  0.1002184E-001  0.2496368E+03  0.7546771E-02  0.1113535E+00
          1   -1    0    0  502    0 -0.00000000000E+00  0.00000000000E+00  0.29332125536E+04  0.29332125536E+04  0.00000000000E+00 0.  1.
         21   -1    0    0  501  502  0.00000000000E+00 -0.00000000000E+00 -0.14631745230E+03  0.14631745230E+03  0.00000000000E+00 0.  1.
         25    1    1    2    0    0  0.39160297277E+02 -0.21250880027E+03 -0.32609022584E+02  0.25175755685E+03  0.12500000000E+03 0.  0.
          1    1    1    2  501    0 -0.39160297277E+02  0.21250880027E+03  0.28195041239E+04  0.28277724491E+04  0.00000000000E+00 0.  1.
<mgrwt>
<rscale>  3 0.24963677E+03</rscale>
<asrwt>0</asrwt>
<pdfrwt beam="1">  1       21 0.22510379E-01 0.24963677E+03</pdfrwt>
<pdfrwt beam="2">  1        1 0.45126343E+00 0.24963677E+03</pdfrwt>
<totfact> 0.16505559E+02</totfact>
</mgrwt>
</event>
<event>
 4    0  0.1061787E-001  0.2644534E+03  0.7546771E-02  0.1104497E+00
         21   -1    0    0  501  502  0.00000000000E+00  0.00000000000E+00  0.64451998323E+03  0.64451998323E+03  0.00000000000E+00 0.  1.
         -3   -1    0    0    0  501 -0.00000000000E+00 -0.00000000000E+00 -0.35286172205E+03  0.35286172205E+03  0.00000000000E+00 0. -1.
         25    1    1    2    0    0  0.22024083455E+03  0.76187926093E+02  0.57357946762E+03  0.63160828918E+03  0.12500000000E+03 0.  0.
         -3    1    1    2    0  502 -0.22024083455E+03 -0.76187926093E+02 -0.28192120644E+03  0.36577341610E+03  0.00000000000E+00 0. -1.
<mgrwt>
<rscale>  3 0.26445345E+03</rscale>
<asrwt>0</asrwt>
<pdfrwt beam="1">  1       21 0.99156921E-01 0.26445345E+03</pdfrwt>
<pdfrwt beam="2">  1       -3 0.54286419E-01 0.26445345E+03</pdfrwt>
<totfact> 0.13655681E+02</totfact>
</mgrwt>
</event>
<event>
 4    0  0.1173729E-001  0.3083785E+03  0.7546771E-02  0.1081126E+00
          1   -1    0    0  502    0 -0.00000000000E+00  0.00000000000E+00  0.29634002320E+04  0.29634002320E+04  0.00000000000E+00 0. -1.
         21   -1    0    0  501  502  0.00000000000E+00 -0.00000000000E+00 -0.89064934076E+02  0.89064934076E+02  0.00000000000E+00 0.  1.
         25    1    1    2    0    0 -0.18731481560E+03  0.21067863086E+03  0.20961637821E+03  0.37287578583E+03  0.12500000000E+03 0.  0.
          1    1    1    2  501    0  0.18731481560E+03 -0.21067863086E+03  0.26647189197E+04  0.26795893802E+04  0.00000000000E+00 0. -1.
<mgrwt>
<rscale>  3 0.30837854E+03</rscale>
<asrwt>0</asrwt>
<pdfrwt beam="1">  1       21 0.13702300E-01 0.30837854E+03</pdfrwt>
<pdfrwt beam="2">  1        1 0.45590765E+00 0.30837854E+03</pdfrwt>
<totfact> 0.38263362E+02</totfact>
</mgrwt>
</event>
<event>
 4    0  0.1305591E-001  0.3143919E+03  0.7546771E-02  0.1078260E+00
          3   -1    0    0  502    0 -0.00000000000E+00  0.00000000000E+00  0.44108753126E+03  0.44108753126E+03  0.00000000000E+00 0. -1.
         21   -1    0    0  501  502  0.00000000000E+00 -0.00000000000E+00 -0.21212009282E+03  0.21212009282E+03  0.00000000000E+00 0. -1.
         25    1    1    2    0    0 -0.18464478787E+03  0.22163831261E+03  0.63813802794E+02  0.32080280661E+03  0.12500000000E+03 0.  0.
          3    1    1    2  501    0  0.18464478787E+03 -0.22163831261E+03  0.16515363565E+03  0.33240481746E+03  0.00000000000E+00 0. -1.
<mgrwt>
<rscale>  3 0.31439186E+03</rscale>
<asrwt>0</asrwt>
<pdfrwt beam="1">  1       21 0.32633860E-01 0.31439186E+03</pdfrwt>
<pdfrwt beam="2">  1        3 0.67859620E-01 0.31439186E+03</pdfrwt>
<totfact> 0.93829172E+02</totfact>
</mgrwt>
</event>
<event>
 4    0  0.1789394E-001  0.2496106E+03  0.7546771E-02  0.1113551E+00
         -4   -1    0    0    0  501 -0.00000000000E+00  0.00000000000E+00  0.13781167708E+04  0.13781167708E+04  0.00000000000E+00 0. -1.
         21   -1    0    0  501  502  0.00000000000E+00 -0.00000000000E+00 -0.97909861989E+02  0.97909861989E+02  0.00000000000E+00 0. -1.
         25    1    1    2    0    0 -0.16962763262E+03 -0.13381676316E+03  0.88411870093E+02  0.26480581305E+03  0.12500000000E+03 0.  0.
         -4    1    1    2    0  502  0.16962763262E+03  0.13381676316E+03  0.11917950387E+04  0.12112208197E+04  0.00000000000E+00 0. -1.
<mgrwt>
<rscale>  3 0.24961062E+03</rscale>
<asrwt>0</asrwt>
<pdfrwt beam="1">  1       21 0.15063057E-01 0.24961062E+03</pdfrwt>
<pdfrwt beam="2">  1       -4 0.21201795E+00 0.24961062E+03</pdfrwt>
<totfact> 0.19795747E+02</totfact>
</mgrwt>
</event>
<event>
 4    0  0.1002184E-001  0.6114487E+03  0.7546771E-02  0.9881934E-01
         21   -1    0    0  501  502  0.00000000000E+00  0.00000000000E+00  0.12690538386E+03  0.12690538386E+03  0.00000000000E+00 0. -1.
          2   -1    0    0  502    0 -0.00000000000E+00 -0.00000000000E+00 -0.29089657769E+04  0.29089657769E+04  0.00000000000E+00 0. -1.
         25    1    1    2    0    0  0.25747882161E+03 -0.54032324455E+03 -0.15459145337E+04  0.16624443743E+04  0.12500000000E+03 0.  0.
          2    1    1    2  501    0 -0.25747882161E+03  0.54032324455E+03 -0.12361458593E+04  0.13734267864E+04  0.00000000000E+00 0. -1.
<mgrwt>
<rscale>  3 0.61144873E+03</rscale>
<asrwt>0</asrwt>
<pdfrwt beam="1">  1       21 0.19523906E-01 0.61144873E+03</pdfrwt>
<pdfrwt beam="2">  1        2 0.44753318E+00 0.61144873E+03</pdfrwt>
<totfact> 0.62406555E+02</totfact>
</mgrwt>
</event>
<event>
 4    0  0.1667130E-001  0.3025446E+03  0.7546771E-02  0.1083975E+00
          2   -1    0    0  502    0 -0.00000000000E+00  0.00000000000E+00  0.11195943283E+04  0.11195943283E+04  0.00000000000E+00 0.  1.
         21   -1    0    0  501  502  0.00000000000E+00 -0.00000000000E+00 -0.72760887250E+03  0.72760887250E+03  0.00000000000E+00 0. -1.
         25    1    1    2    0    0  0.95035144101E+02 -0.25860507693E+03 -0.67793371923E+03  0.74237954720E+03  0.12500000000E+03 0.  0.
          2    1    1    2  501    0 -0.95035144101E+02  0.25860507693E+03  0.10699191750E+04  0.11048236536E+04  0.00000000000E+00 0.  1.
<mgrwt>
<rscale>  3 0.30254465E+03</rscale>
<asrwt>0</asrwt>
<pdfrwt beam="1">  1       21 0.11193983E+00 0.30254465E+03</pdfrwt>
<pdfrwt beam="2">  1        2 0.17224528E+00 0.30254465E+03</pdfrwt>
<totfact> 0.16469442E+02</totfact>
</mgrwt>
</event>
<event>
 4    0  0.1002184E-001  0.2367895E+03  0.7546771E-02  0.1121950E+00
         21   -1    0    0  501  502  0.00000000000E+00  0.00000000000E+00  0.46651431114E+03  0.46651431114E+03  0.00000000000E+00 0. -1.
         -2   -1    0    0    0  501 -0.00000000000E+00 -0.00000000000E+00 -0.18291373529E+03  0.18291373529E+03  0.00000000000E+00 0.  1.
         25    1    1    2    0    0  0.11459156350E+03  0.16526655530E+03  0.36284295167E+03  0.43327158724E+03  0.12500000000E+03 0.  0.
         -2    1    1    2    0  502 -0.11459156350E+03 -0.16526655530E+03 -0.79242375825E+02  0.21615645920E+03  0.00000000000E+00 0.  1.
<mgrwt>
<rscale>  3 0.23678949E+03</rscale>
<asrwt>0</asrwt>
<pdfrwt beam="1">  1       21 0.71771432E-01 0.23678949E+03</pdfrwt>
<pdfrwt beam="2">  1       -2 0.28140575E-01 0.23678949E+03</pdfrwt>
<totfact> 0.15922054E+03</totfact>
</mgrwt>
</event>
<event>
 4    0  0.1002184E-001  0.2371352E+03  0.7546771E-02  0.1121716E+00
          2   -1    0    0  502    0 -0.00000000000E+00  0.00000000000E+00  0.77137996489E+03  0.77137996489E+03  0.00000000000E+00 0.  1.
         21   -1    0    0  501  502  0.00000000000E+00 -0.00000000000E+00 -0.62418078879E+02  0.62418078879E+02  0.00000000000E+00 0.  1.
         25    1    1    2    0    0  0.94735491241E+02 -0.17785744057E+03  0.37058185110E+03  0.43995907859E+03  0.12500000000E+03 0.  0.
          2    1    1    2  501    0 -0.94735491241E+02  0.17785744057E+03  0.33838003491E+03  0.39383896518E+03  0.00000000000E+00 0.  1.
<mgrwt>
<rscale>  3 0.23713516E+03</rscale>
<asrwt>0</asrwt>
<pdfrwt beam="1">  1       21 0.96027819E-02 0.23713516E+03</pdfrwt>
<pdfrwt beam="2">  1        2 0.11867383E+00 0.23713516E+03</pdfrwt>
<totfact> 0.40733358E+04</totfact>
</mgrwt>
</event>
<event>
 4    0  0.1064088E-001  0.3048492E+03  0.7546771E-02  0.1082841E+00
          1   -1    0    0  502    0 -0.00000000000E+00  0.00000000000E+00  0.27407404532E+03  0.27407404532E+03  0.00000000000E+00 0. -1.
         21   -1    0    0  501  502  0.00000000000E+00 -0.00000000000E+00 -0.13949419872E+04  0.13949419872E+04  0.00000000000E+00 0. -1.
         25    1    1    2    0    0 -0.24409809532E+03  0.13313208553E+03 -0.13019769816E+04  0.13371899989E+04  0.12500000000E+03 0.  0.
          1    1    1    2  501    0  0.24409809532E+03 -0.13313208553E+03  0.18110903976E+03  0.33182603366E+03  0.00000000000E+00 0. -1.
<mgrwt>
<rscale>  3 0.30484920E+03</rscale>
<asrwt>0</asrwt>
<pdfrwt beam="1">  1       21 0.21460646E+00 0.30484920E+03</pdfrwt>
<pdfrwt beam="2">  1        1 0.42165237E-01 0.30484920E+03</pdfrwt>
<totfact> 0.10706849E+02</totfact>
</mgrwt>
</event>
<event>
 4    0  0.1374337E-001  0.3932586E+03  0.7546771E-02  0.1046139E+00
         21   -1    0    0  501  502  0.00000000000E+00  0.00000000000E+00  0.28780930912E+03  0.28780930912E+03  0.00000000000E+00 0.  1.
          2   -1    0    0  502    0 -0.00000000000E+00 -0.00000000000E+00 -0.14454917541E+04  0.14454917541E+04  0.00000000000E+00 0.  1.
         25    1    1    2    0    0  0.35637828753E+03 -0.10964400720E+03  0.11289549024E+03  0.40914262043E+03  0.12500000000E+03 0.  0.
          2    1    1    2  501    0 -0.35637828753E+03  0.10964400720E+03 -0.12705779352E+04  0.13241584428E+04  0.00000000000E+00 0.  1.
<mgrwt>
<rscale>  3 0.39325856E+03</rscale>
<asrwt>0</asrwt>
<pdfrwt beam="1">  1       21 0.44278355E-01 0.39325856E+03</pdfrwt>
<pdfrwt beam="2">  1        2 0.22238335E+00 0.39325856E+03</pdfrwt>
<totfact> 0.83802421E+02</totfact>
</mgrwt>
</event>
<event>
 4    0  0.1002184E-001  0.6720441E+03  0.7546771E-02  0.9766272E-01
          2   -1    0    0  502    0 -0.00000000000E+00  0.00000000000E+00  0.23972764910E+04  0.23972764910E+04  0.00000000000E+00 0.  1.
         21   -1    0    0  501  502  0.00000000000E+00 -0.00000000000E+00 -0.21712475445E+03  0.21712475445E+03  0.00000000000E+00 0.  1.
         25    1    1    2    0    0  0.22691810813E+03 -0.62010191002E+03  0.59643985769E+03  0.89854533021E+03  0.12500000000E+03 0.  0.
          2    1    1    2  501    0 -0.22691810813E+03  0.62010191002E+03  0.15837118789E+04  0.17158559153E+04  0.00000000000E+00 0.  1.
<mgrwt>
<rscale>  3 0.67204405E+03</rscale>
<asrwt>0</asrwt>
<pdfrwt beam="1">  1       21 0.33403810E-01 0.67204405E+03</pdfrwt>
<pdfrwt beam="2">  1        2 0.36881175E+00 0.67204405E+03</pdfrwt>
<totfact> 0.42202519E+02</totfact>
</mgrwt>
</event>
<event>
 4    0  0.1002184E-001  0.3623561E+03  0.7546771E-02  0.1057655E+00
          2   -1    0    0  502    0 -0.00000000000E+00  0.00000000000E+00  0.15807203622E+03  0.15807203622E+03  0.00000000000E+00 0. -1.
         21   -1    0    0  501  502  0.00000000000E+00 -0.00000000000E+00 -0.12185100322E+04  0.12185100322E+04  0.00000000000E+00 0.  1.
         25    1    1    2    0    0 -0.13316166784E+03  0.31296155635E+03 -0.95353450973E+03  0.10200637366E+04  0.12500000000E+03 0.  0.
          2    1    1    2  501    0  0.13316166784E+03 -0.31296155635E+03 -0.10690348625E+03  0.35651833179E+03  0.00000000000E+00 0. -1.
<mgrwt>
<rscale>  3 0.36235613E+03</rscale>
<asrwt>0</asrwt>
<pdfrwt beam="1">  1       21 0.18746308E+00 0.36235613E+03</pdfrwt>
<pdfrwt beam="2">  1        2 0.24318775E-01 0.36235613E+03</pdfrwt>
<totfact> 0.40372881E+02</totfact>
</mgrwt>
</event>
<event>
 4    0  0.1427397E-001  0.3273691E+03  0.7546771E-02  0.1072307E+00
          2   -1    0    0  502    0 -0.00000000000E+00  0.00000000000E+00  0.69400679185E+03  0.69400679185E+03  0.00000000000E+00 0. -1.
         21   -1    0    0  501  502  0.00000000000E+00 -0.00000000000E+00 -0.38773208485E+03  0.38773208485E+03  0.00000000000E+00 0. -1.
         25    1    1    2    0    0 -0.23320521908E+03  0.19277151137E+03 -0.27427239498E+03  0.42707830248E+03  0.12500000000E+03 0.  0.
          2    1    1    2  501    0  0.23320521908E+03 -0.19277151137E+03  0.58054710199E+03  0.65466057421E+03  0.00000000000E+00 0. -1.
<mgrwt>
<rscale>  3 0.32736910E+03</rscale>
<asrwt>0</asrwt>
<pdfrwt beam="1">  1       21 0.59651090E-01 0.32736910E+03</pdfrwt>
<pdfrwt beam="2">  1        2 0.10677028E+00 0.32736910E+03</pdfrwt>
<totfact> 0.13278592E+03</totfact>
</mgrwt>
</event>
<event>
 4    0  0.1002184E-001  0.2434283E+03  0.7546771E-02  0.1117530E+00
         21   -1    0    0  501  502  0.00000000000E+00  0.00000000000E+00  0.86478103478E+02  0.86478103478E+02  0.00000000000E+00 0. -1.
         -2   -1    0    0    0  501 -0.00000000000E+00 -0.00000000000E+00 -0.66745587095E+03  0.66745587095E+03  0.00000000000E+00 0.  1.
         25    1    1    2    0    0  0.20598075086E+03  0.34702455272E+02 -0.18325923214E+03  0.30469866473E+03  0.12500000000E+03 0.  0.
         -2    1    1    2    0  502 -0.20598075086E+03 -0.34702455272E+02 -0.39771853534E+03  0.44923530970E+03  0.00000000000E+00 0.  1.
<mgrwt>
<rscale>  3 0.24342829E+03</rscale>
<asrwt>0</asrwt>
<pdfrwt beam="1">  1       21 0.13304323E-01 0.24342829E+03</pdfrwt>
<pdfrwt beam="2">  1       -2 0.10268552E+00 0.24342829E+03</pdfrwt>
<totfact> 0.32025024E+03</totfact>
</mgrwt>
</event>
<event>
 4    0  0.1002184E-001  0.2451650E+03  0.7546771E-02  0.1116399E+00
          2   -1    0    0  502    0 -0.00000000000E+00  0.00000000000E+00  0.86528418615E+02  0.86528418615E+02  0.00000000000E+00 0.  1.
         21   -1    0    0  501  502  0.00000000000E+00 -0.00000000000E+00 -0.15547389402E+04  0.15547389402E+04  0.00000000000E+00 0.  1.
         25    1    1    2    0    0  0.21004659881E+03 -0.19007636378E+02 -0.13974739769E+04  0.14188161896E+04  0.12500000000E+03 0.  0.
          2    1    1    2  501    0 -0.21004659881E+03  0.19007636378E+02 -0.70736544709E+02  0.22245116918E+03  0.00000000000E+00 0.  1.
<mgrwt>
<rscale>  3 0.24516497E+03</rscale>
<asrwt>0</asrwt>
<pdfrwt beam="1">  1       21 0.23919061E+00 0.24516497E+03</pdfrwt>
<pdfrwt beam="2">  1        2 0.13312064E-01 0.24516497E+03</pdfrwt>
<totfact> 0.40520985E+02</totfact>
</mgrwt>
</event>
<event>
 4    0  0.1002184E-001  0.2403247E+03  0.7546771E-02  0.1119577E+00
         -3   -1    0    0    0  501 -0.00000000000E+00  0.00000000000E+00  0.15953759139E+04  0.15953759139E+04  0.00000000000E+00 0.  1.
         21   -1    0    0  501  502  0.00000000000E+00 -0.00000000000E+00 -0.38883806236E+02  0.38883806236E+02  0.00000000000E+00 0. -1.
         25    1    1    2    0    0 -0.79778346875E+02  0.18911997991E+03  0.46285306071E+03  0.52152555761E+03  0.12500000000E+03 0.  0.
         -3    1    1    2    0  502  0.79778346875E+02 -0.18911997991E+03  0.10936390470E+04  0.11127341625E+04  0.00000000000E+00 0.  1.
<mgrwt>
<rscale>  3 0.24032468E+03</rscale>
<asrwt>0</asrwt>
<pdfrwt beam="1">  1       21 0.59821253E-02 0.24032468E+03</pdfrwt>
<pdfrwt beam="2">  1       -3 0.24544240E+00 0.24032468E+03</pdfrwt>
<totfact> 0.85356676E+02</totfact>
</mgrwt>
</event>
<event>
 4    0  0.1176639E-001  0.2391201E+03  0.7546771E-02  0.1120380E+00
          2   -1    0    0  502    0 -0.00000000000E+00  0.00000000000E+00  0.28862548271E+04  0.28862548271E+04  0.00000000000E+00 0.  1.
         21   -1    0    0  501  502  0.00000000000E+00 -0.00000000000E+00 -0.28193743462E+02  0.28193743462E+02  0.00000000000E+00 0.  1.
         25    1    1    2    0    0 -0.20255790529E+03 -0.22885008677E+02  0.58102218396E+03  0.62830343535E+03  0.12500000000E+03 0.  0.
          2    1    1    2  501    0  0.20255790529E+03  0.22885008677E+02  0.22770388997E+04  0.22861451352E+04  0.00000000000E+00 0.  1.
<mgrwt>
<rscale>  3 0.23912011E+03</rscale>
<asrwt>0</asrwt>
<pdfrwt beam="1">  1       21 0.43375013E-02 0.23912011E+03</pdfrwt>
<pdfrwt beam="2">  1        2 0.44403897E+00 0.23912011E+03</pdfrwt>
<totfact> 0.10699246E+04</totfact>
</mgrwt>
</event>
<event>
 4    0  0.1002184E-001  0.2685220E+03  0.7546771E-02  0.1102129E+00
         21   -1    0    0  501  502  0.00000000000E+00  0.00000000000E+00  0.17412424445E+04  0.17412424445E+04  0.00000000000E+00 0. -1.
         -2   -1    0    0    0  501 -0.00000000000E+00 -0.00000000000E+00 -0.10158635978E+03  0.10158635978E+03  0.00000000000E+00 0.  1.
         25    1    1    2    0    0  0.23301214223E+03  0.46737350410E+02  0.15733491927E+04  0.15960989069E+04  0.12500000000E+03 0.  0.
         -2    1    1    2    0  502 -0.23301214223E+03 -0.46737350410E+02  0.66306892037E+02  0.24672989742E+03  0.00000000000E+00 0.  1.
<mgrwt>
<rscale>  3 0.26852195E+03</rscale>
<asrwt>0</asrwt>
<pdfrwt beam="1">  1       21 0.26788343E+00 0.26852195E+03</pdfrwt>
<pdfrwt beam="2">  1       -2 0.15628672E-01 0.26852195E+03</pdfrwt>
<totfact> 0.12434086E+02</totfact>
</mgrwt>
</event>
<event>
 4    0  0.1598598E-001  0.2469054E+03  0.7546771E-02  0.1115276E+00
          2   -1    0    0  502    0 -0.00000000000E+00  0.00000000000E+00  0.25279085817E+04  0.25279085817E+04  0.00000000000E+00 0. -1.
         21   -1    0    0  501  502  0.00000000000E+00 -0.00000000000E+00 -0.23596409565E+02  0.23596409565E+02  0.00000000000E+00 0. -1.
         25    1    1    2    0    0 -0.42190554758E+02  0.20870370546E+03  0.90482231419E+03  0.93790495245E+03  0.12500000000E+03 0.  0.
          2    1    1    2  501    0  0.42190554758E+02 -0.20870370546E+03  0.15994898580E+04  0.16136000388E+04  0.00000000000E+00 0. -1.
<mgrwt>
<rscale>  3 0.24690541E+03</rscale>
<asrwt>0</asrwt>
<pdfrwt beam="1">  1       21 0.36302189E-02 0.24690541E+03</pdfrwt>
<pdfrwt beam="2">  1        2 0.38890880E+00 0.24690541E+03</pdfrwt>
<totfact> 0.22898281E+04</totfact>
</mgrwt>
</event>
<event>
 4    0  0.1673539E-001  0.2398094E+03  0.7546771E-02  0.1119920E+00
         21   -1    0    0  501  502  0.00000000000E+00  0.00000000000E+00  0.29764058156E+03  0.29764058156E+03  0.00000000000E+00 0. -1.
         -2   -1    0    0    0  501 -0.00000000000E+00 -0.00000000000E+00 -0.16873338481E+03  0.16873338481E+03  0.00000000000E+00 0. -1.
         25    1    1    2    0    0  0.18259248109E+03  0.92431330321E+02  0.39495240204E+02  0.24303999460E+03  0.12500000000E+03 0.  0.
         -2    1    1    2    0  502 -0.18259248109E+03 -0.92431330321E+02  0.89411956543E+02  0.22333397177E+03  0.00000000000E+00 0. -1.
<mgrwt>
<rscale>  3 0.23980943E+03</rscale>
<asrwt>0</asrwt>
<pdfrwt beam="1">  1       21 0.45790859E-01 0.23980943E+03</pdfrwt>
<pdfrwt beam="2">  1       -2 0.25958982E-01 0.23980943E+03</pdfrwt>
<totfact> 0.48178694E+03</totfact>
</mgrwt>
</event>
<event>
 4    0  0.1002184E-001  0.2469803E+03  0.7546771E-02  0.1115228E+00
         21   -1    0    0  501  502  0.00000000000E+00  0.00000000000E+00  0.10503416112E+03  0.10503416112E+03  0.00000000000E+00 0.  1.
         -2   -1    0    0    0  501 -0.00000000000E+00 -0.00000000000E+00 -0.65776028592E+03  0.65776028592E+03  0.00000000000E+00 0. -1.
         25    1    1    2    0    0 -0.16645474832E+03 -0.13291762019E+03 -0.10775068263E+03  0.26946147517E+03  0.12500000000E+03 0.  0.
         -2    1    1    2    0  502  0.16645474832E+03  0.13291762019E+03 -0.44497544217E+03  0.49333297186E+03  0.00000000000E+00 0. -1.
<mgrwt>
<rscale>  3 0.24698032E+03</rscale>
<asrwt>0</asrwt>
<pdfrwt beam="1">  1       21 0.16159102E-01 0.24698032E+03</pdfrwt>
<pdfrwt beam="2">  1       -2 0.10119389E+00 0.24698032E+03</pdfrwt>
<totfact> 0.23217087E+03</totfact>
</mgrwt>
</event>
<event>
 4    0  0.1002184E-001  0.2408199E+03  0.7546771E-02  0.1119248E+00
          1   -1    0    0  502    0 -0.00000000000E+00  0.00000000000E+00  0.22408604661E+04  0.22408604661E+04  0.00000000000E+00 0.  1.
         21   -1    0    0  501  502  0.00000000000E+00 -0.00000000000E+00 -0.22487940105E+02  0.22487940105E+02  0.00000000000E+00 0. -1.
         25    1    1    2    0    0 -0.38808982754E+02 -0.20214618647E+03  0.10809382229E+04  0.11074392352E+04  0.12500000000E+03 0.  0.
          1    1    1    2  501    0  0.38808982754E+02  0.20214618647E+03  0.11374343031E+04  0.11559091710E+04  0.00000000000E+00 0.  1.
<mgrwt>
<rscale>  3 0.24081989E+03</rscale>
<asrwt>0</asrwt>
<pdfrwt beam="1">  1       21 0.34596849E-02 0.24081989E+03</pdfrwt>
<pdfrwt beam="2">  1        1 0.34474759E+00 0.24081989E+03</pdfrwt>
<totfact> 0.13264607E+04</totfact>
</mgrwt>
</event>
<event>
 4    0  0.1002184E-001  0.2462229E+03  0.7546771E-02  0.1115715E+00
          2   -1    0    0  502    0 -0.00000000000E+00  0.00000000000E+00  0.13156299066E+04  0.13156299066E+04  0.00000000000E+00 0. -1.
         21   -1    0    0  501  502  0.00000000000E+00 -0.00000000000E+00 -0.40662619801E+02  0.40662619801E+02  0.00000000000E+00 0.  1.
         25    1    1    2    0    0 -0.20097356022E+03  0.67899426802E+02  0.59276392850E+03  0.64186819441E+03  0.12500000000E+03 0.  0.
          2    1    1    2  501    0  0.20097356022E+03 -0.67899426802E+02  0.68220335829E+03  0.71442433198E+03  0.00000000000E+00 0. -1.
<mgrwt>
<rscale>  3 0.24622287E+03</rscale>
<asrwt>0</asrwt>
<pdfrwt beam="1">  1       21 0.62557887E-02 0.24622287E+03</pdfrwt>
<pdfrwt beam="2">  1        2 0.20240457E+00 0.24622287E+03</pdfrwt>
<totfact> 0.40071216E+04</totfact>
</mgrwt>
</event>
<event>
 4    0  0.1577422E-001  0.2525109E+03  0.7546771E-02  0.1111728E+00
          2   -1    0    0  502    0 -0.00000000000E+00  0.00000000000E+00  0.10996726165E+04  0.10996726165E+04  0.00000000000E+00 0.  1.
         21   -1    0    0  501  502  0.00000000000E+00 -0.00000000000E+00 -0.88904484815E+02  0.88904484815E+02  0.00000000000E+00 0.  1.
         25    1    1    2    0    0  0.19642005963E+03 -0.97754461823E+02  0.13618488025E+03  0.28689387627E+03  0.12500000000E+03 0.  0.
          2    1    1    2  501    0 -0.19642005963E+03  0.97754461823E+02  0.87458325140E+03  0.90168322501E+03  0.00000000000E+00 0.  1.
<mgrwt>
<rscale>  3 0.25251094E+03</rscale>
<asrwt>0</asrwt>
<pdfrwt beam="1">  1       21 0.13677614E-01 0.25251094E+03</pdfrwt>
<pdfrwt beam="2">  1        2 0.16918039E+00 0.25251094E+03</pdfrwt>
<totfact> 0.13302239E+04</totfact>
</mgrwt>
</event>
<event>
 4    0  0.1002184E-001  0.2704341E+03  0.7546771E-02  0.1101031E+00
         21   -1    0    0  501  502  0.00000000000E+00  0.00000000000E+00  0.35903700831E+02  0.35903700831E+02  0.00000000000E+00 0. -1.
          1   -1    0    0  502    0 -0.00000000000E+00 -0.00000000000E+00 -0.24429185316E+04  0.24429185316E+04  0.00000000000E+00 0.  1.
         25    1    1    2    0    0  0.19725553405E+03  0.13638137263E+03 -0.62850336590E+03  0.68421568636E+03  0.12500000000E+03 0.  0.
          1    1    1    2  501    0 -0.19725553405E+03 -0.13638137263E+03 -0.17785114649E+04  0.17946065461E+04  0.00000000000E+00 0.  1.
<mgrwt>
<rscale>  3 0.27043414E+03</rscale>
<asrwt>0</asrwt>
<pdfrwt beam="1">  1       21 0.55236464E-02 0.27043414E+03</pdfrwt>
<pdfrwt beam="2">  1        1 0.37583361E+00 0.27043414E+03</pdfrwt>
<totfact> 0.43769822E+03</totfact>
</mgrwt>
</event>
<event>
 4    0  0.1685269E-001  0.2522359E+03  0.7546771E-02  0.1111900E+00
          2   -1    0    0  502    0 -0.00000000000E+00  0.00000000000E+00  0.23323487390E+04  0.23323487390E+04  0.00000000000E+00 0. -1.
         21   -1    0    0  501  502  0.00000000000E+00 -0.00000000000E+00 -0.24094708122E+02  0.24094708122E+02  0.00000000000E+00 0. -1.
         25    1    1    2    0    0  0.20351352041E+03 -0.81118543440E+02  0.11068277824E+04  0.11352051405E+04  0.12500000000E+03 0.  0.
          2    1    1    2  501    0 -0.20351352041E+03  0.81118543440E+02  0.12014262485E+04  0.12212383066E+04  0.00000000000E+00 0. -1.
<mgrwt>
<rscale>  3 0.25223594E+03</rscale>
<asrwt>0</asrwt>
<pdfrwt beam="1">  1       21 0.37068800E-02 0.25223594E+03</pdfrwt>
<pdfrwt beam="2">  1        2 0.35882271E+00 0.25223594E+03</pdfrwt>
<totfact> 0.28177929E+04</totfact>
</mgrwt>
</event>
<event>
 4    0  0.1194979E-001  0.3100857E+03  0.7546771E-02  0.1080305E+00
          2   -1    0    0  502    0 -0.00000000000E+00  0.00000000000E+00  0.31425216388E+04  0.31425216388E+04  0.00000000000E+00 0. -1.
         21   -1    0    0  501  502  0.00000000000E+00 -0.00000000000E+00 -0.50675981611E+02  0.50675981611E+02  0.00000000000E+00 0. -1.
         25    1    1    2    0    0 -0.27790131876E+03  0.57437136312E+02  0.51773370589E+03  0.60349097575E+03  0.12500000000E+03 0.  0.
          2    1    1    2  501    0  0.27790131876E+03 -0.57437136312E+02  0.25741119513E+04  0.25897066447E+04  0.00000000000E+00 0. -1.
<mgrwt>
<rscale>  3 0.31008574E+03</rscale>
<asrwt>0</asrwt>
<pdfrwt beam="1">  1       21 0.77963073E-02 0.31008574E+03</pdfrwt>
<pdfrwt beam="2">  1        2 0.48346471E+00 0.31008574E+03</pdfrwt>
<totfact> 0.26608489E+03</totfact>
</mgrwt>
</event>
<event>
 4    0  0.1272843E-001  0.2844080E+03  0.7546771E-02  0.1093305E+00
          2   -1    0    0  502    0 -0.00000000000E+00  0.00000000000E+00  0.58424080695E+03  0.58424080695E+03  0.00000000000E+00 0.  1.
         21   -1    0    0  501  502  0.00000000000E+00 -0.00000000000E+00 -0.21530201458E+03  0.21530201458E+03  0.00000000000E+00 0.  1.
         25    1    1    2    0    0  0.25435242567E+03 -0.23827553210E+02 -0.68891060595E+02  0.29263268267E+03  0.12500000000E+03 0.  0.
          2    1    1    2  501    0 -0.25435242567E+03  0.23827553210E+02  0.43782985296E+03  0.50691013886E+03  0.00000000000E+00 0.  1.
<mgrwt>
<rscale>  3 0.28440800E+03</rscale>
<asrwt>0</asrwt>
<pdfrwt beam="1">  1       21 0.33123387E-01 0.28440800E+03</pdfrwt>
<pdfrwt beam="2">  1        2 0.89883201E-01 0.28440800E+03</pdfrwt>
<totfact> 0.55931101E+03</totfact>
</mgrwt>
</event>
<event>
 4    0  0.1485171E-001  0.2416566E+03  0.7546771E-02  0.1118694E+00
         -3   -1    0    0    0  501 -0.00000000000E+00  0.00000000000E+00  0.67825120564E+02  0.67825120564E+02  0.00000000000E+00 0. -1.
         21   -1    0    0  501  502  0.00000000000E+00 -0.00000000000E+00 -0.75429337908E+03  0.75429337908E+03  0.00000000000E+00 0. -1.
         25    1    1    2    0    0 -0.56648425885E+02  0.19890672990E+03 -0.42313360399E+03  0.48727813226E+03  0.12500000000E+03 0.  0.
         -3    1    1    2    0  502  0.56648425885E+02 -0.19890672990E+03 -0.26333465453E+03  0.33484036738E+03  0.00000000000E+00 0. -1.
<mgrwt>
<rscale>  3 0.24165664E+03</rscale>
<asrwt>0</asrwt>
<pdfrwt beam="1">  1       21 0.11604513E+00 0.24165664E+03</pdfrwt>
<pdfrwt beam="2">  1       -3 0.10434634E-01 0.24165664E+03</pdfrwt>
<totfact> 0.19292193E+03</totfact>
</mgrwt>
</event>
<event>
 4    0  0.1002184E-001  0.4137439E+03  0.7546771E-02  0.1039122E+00
         21   -1    0    0  501  502  0.00000000000E+00  0.00000000000E+00  0.92254071956E+03  0.92254071956E+03  0.00000000000E+00 0.  1.
          2   -1    0    0  502    0 -0.00000000000E+00 -0.00000000000E+00 -0.29074955874E+03  0.29074955874E+03  0.00000000000E+00 0. -1.
         25    1    1    2    0    0 -0.23027861676E+03 -0.32020431815E+03  0.69989696397E+03  0.81304354550E+03  0.12500000000E+03 0.  0.
          2    1    1    2  501    0  0.23027861676E+03  0.32020431815E+03 -0.68105803150E+02  0.40024673281E+03  0.00000000000E+00 0. -1.
<mgrwt>
<rscale>  3 0.41374394E+03</rscale>
<asrwt>0</asrwt>
<pdfrwt beam="1">  1       21 0.14192934E+00 0.41374394E+03</pdfrwt>
<pdfrwt beam="2">  1        2 0.44730702E-01 0.41374394E+03</pdfrwt>
<totfact> 0.43884954E+02</totfact>
</mgrwt>
</event>
<event>
 4    0  0.1463479E-001  0.2836717E+03  0.7546771E-02  0.1093700E+00
         21   -1    0    0  501  502  0.00000000000E+00  0.00000000000E+00  0.52529882890E+03  0.52529882890E+03  0.00000000000E+00 0. -1.
         -4   -1    0    0    0  501 -0.00000000000E+00 -0.00000000000E+00 -0.12575761044E+04  0.12575761044E+04  0.00000000000E+00 0.  1.
         25    1    1    2    0    0 -0.16844070605E+03 -0.19097744482E+03  0.47269985232E+03  0.55128468714E+03  0.12500000000E+03 0.  0.
         -4    1    1    2    0  502  0.16844070605E+03  0.19097744482E+03 -0.12049771278E+04  0.12315902462E+04  0.00000000000E+00 0.  1.
<mgrwt>
<rscale>  3 0.28367174E+03</rscale>
<asrwt>0</asrwt>
<pdfrwt beam="1">  1       21 0.80815205E-01 0.28367174E+03</pdfrwt>
<pdfrwt beam="2">  1       -4 0.19347325E+00 0.28367174E+03</pdfrwt>
<totfact> 0.86281128E+00</totfact>
</mgrwt>
</event>
<event>
 4    0  0.1473672E-001  0.2647685E+03  0.7546771E-02  0.1104312E+00
         21   -1    0    0  501  502  0.00000000000E+00  0.00000000000E+00  0.11758267820E+03  0.11758267820E+03  0.00000000000E+00 0. -1.
          2   -1    0    0  502    0 -0.00000000000E+00 -0.00000000000E+00 -0.17778323503E+04  0.17778323503E+04  0.00000000000E+00 0. -1.
         25    1    1    2    0    0  0.57153181191E+02 -0.22629815768E+03 -0.51385644358E+02  0.26970878135E+03  0.12500000000E+03 0.  0.
          2    1    1    2  501    0 -0.57153181191E+02  0.22629815768E+03 -0.16088640277E+04  0.16257062472E+04  0.00000000000E+00 0. -1.
<mgrwt>
<rscale>  3 0.26476847E+03</rscale>
<asrwt>0</asrwt>
<pdfrwt beam="1">  1       21 0.18089644E-01 0.26476847E+03</pdfrwt>
<pdfrwt beam="2">  1        2 0.27351266E+00 0.26476847E+03</pdfrwt>
<totfact> 0.33798265E+03</totfact>
</mgrwt>
</event>
<event>
 4    0  0.1002184E-001  0.2898474E+03  0.7546771E-02  0.1090429E+00
         -3   -1    0    0    0  501 -0.00000000000E+00  0.00000000000E+00  0.11202018384E+03  0.11202018384E+03  0.00000000000E+00 0. -1.
         21   -1    0    0  501  502  0.00000000000E+00 -0.00000000000E+00 -0.78809777612E+03  0.78809777612E+03  0.00000000000E+00 0.  1.
         25    1    1    2    0    0  0.10429158376E+03  0.23981199114E+03 -0.52068999184E+03  0.59592750661E+03  0.12500000000E+03 0.  0.
         -3    1    1    2    0  502 -0.10429158376E+03 -0.23981199114E+03 -0.15538760045E+03  0.30419045335E+03  0.00000000000E+00 0. -1.
<mgrwt>
<rscale>  3 0.28984742E+03</rscale>
<asrwt>0</asrwt>
<pdfrwt beam="1">  1       21 0.12124581E+00 0.28984742E+03</pdfrwt>
<pdfrwt beam="2">  1       -3 0.17233875E-01 0.28984742E+03</pdfrwt>
<totfact> 0.72540234E+02</totfact>
</mgrwt>
</event>
<event>
 4    0  0.1395770E-001  0.2437984E+03  0.7546771E-02  0.1117288E+00
          1   -1    0    0  502    0 -0.00000000000E+00  0.00000000000E+00  0.15062026201E+04  0.15062026201E+04  0.00000000000E+00 0. -1.
         21   -1    0    0  501  502  0.00000000000E+00 -0.00000000000E+00 -0.72379375015E+02  0.72379375015E+02  0.00000000000E+00 0. -1.
         25    1    1    2    0    0 -0.13742309357E+03  0.15788459557E+03  0.16921507215E+03  0.29676824764E+03  0.12500000000E+03 0.  0.
          1    1    1    2  501    0  0.13742309357E+03 -0.15788459557E+03  0.12646081730E+04  0.12818137475E+04  0.00000000000E+00 0. -1.
<mgrwt>
<rscale>  3 0.24379838E+03</rscale>
<asrwt>0</asrwt>
<pdfrwt beam="1">  1       21 0.11135290E-01 0.24379838E+03</pdfrwt>
<pdfrwt beam="2">  1        1 0.23172346E+00 0.24379838E+03</pdfrwt>
<totfact> 0.52944529E+03</totfact>
</mgrwt>
</event>
<event>
 4    0  0.1002184E-001  0.2604154E+03  0.7546771E-02  0.1106894E+00
          2   -1    0    0  502    0 -0.00000000000E+00  0.00000000000E+00  0.17651509401E+04  0.17651509401E+04  0.00000000000E+00 0. -1.
         21   -1    0    0  501  502  0.00000000000E+00 -0.00000000000E+00 -0.46315643298E+02  0.46315643298E+02  0.00000000000E+00 0.  1.
         25    1    1    2    0    0  0.46015604731E+01  0.22840754962E+03  0.43130612827E+03  0.50382651713E+03  0.12500000000E+03 0.  0.
          2    1    1    2  501    0 -0.46015604731E+01 -0.22840754962E+03  0.12875291686E+04  0.13076400663E+04  0.00000000000E+00 0. -1.
<mgrwt>
<rscale>  3 0.26041540E+03</rscale>
<asrwt>0</asrwt>
<pdfrwt beam="1">  1       21 0.71254849E-02 0.26041540E+03</pdfrwt>
<pdfrwt beam="2">  1        2 0.27156163E+00 0.26041540E+03</pdfrwt>
<totfact> 0.18337648E+04</totfact>
</mgrwt>
</event>
<event>
 4    0  0.1442006E-001  0.2447077E+03  0.7546771E-02  0.1116696E+00
         21   -1    0    0  501  502  0.00000000000E+00  0.00000000000E+00  0.54292904238E+02  0.54292904238E+02  0.00000000000E+00 0.  1.
          1   -1    0    0  502    0 -0.00000000000E+00 -0.00000000000E+00 -0.14286489248E+04  0.14286489248E+04  0.00000000000E+00 0.  1.
         25    1    1    2    0    0  0.91006138303E+02  0.18967002666E+03 -0.29504189917E+03  0.38331652520E+03  0.12500000000E+03 0.  0.
          1    1    1    2  501    0 -0.91006138303E+02 -0.18967002666E+03 -0.10793141214E+04  0.10996253039E+04  0.00000000000E+00 0.  1.
<mgrwt>
<rscale>  3 0.24470765E+03</rscale>
<asrwt>0</asrwt>
<pdfrwt beam="1">  1       21 0.83527546E-02 0.24470765E+03</pdfrwt>
<pdfrwt beam="2">  1        1 0.21979214E+00 0.24470765E+03</pdfrwt>
<totfact> 0.99192368E+03</totfact>
</mgrwt>
</event>
<event>
 4    0  0.1002184E-001  0.2778986E+03  0.7546771E-02  0.1096842E+00
          1   -1    0    0  502    0 -0.00000000000E+00  0.00000000000E+00  0.28958169904E+03  0.28958169904E+03  0.00000000000E+00 0. -1.
         21   -1    0    0  501  502  0.00000000000E+00 -0.00000000000E+00 -0.25173230346E+03  0.25173230346E+03  0.00000000000E+00 0.  1.
         25    1    1    2    0    0  0.52058310959E+02 -0.24267788392E+03  0.80843636768E+02  0.28941892939E+03  0.12500000000E+03 0.  0.
          1    1    1    2  501    0 -0.52058310959E+02  0.24267788392E+03 -0.42994241190E+02  0.25189507311E+03  0.00000000000E+00 0. -1.
<mgrwt>
<rscale>  3 0.27789858E+03</rscale>
<asrwt>0</asrwt>
<pdfrwt beam="1">  1       21 0.38728047E-01 0.27789858E+03</pdfrwt>
<pdfrwt beam="2">  1        1 0.44551031E-01 0.27789858E+03</pdfrwt>
<totfact> 0.63100363E+03</totfact>
</mgrwt>
</event>
<event>
 4    0  0.1570549E-001  0.2612635E+03  0.7546771E-02  0.1106386E+00
          1   -1    0    0  502    0 -0.00000000000E+00  0.00000000000E+00  0.73299709184E+03  0.73299709184E+03  0.00000000000E+00 0.  1.
         21   -1    0    0  501  502  0.00000000000E+00 -0.00000000000E+00 -0.10708517252E+03  0.10708517252E+03  0.00000000000E+00 0.  1.
         25    1    1    2    0    0 -0.22335124168E+03  0.52419913119E+02  0.12603970375E+03  0.29007694043E+03  0.12500000000E+03 0.  0.
          1    1    1    2  501    0  0.22335124168E+03 -0.52419913119E+02  0.49987221557E+03  0.55000532393E+03  0.00000000000E+00 0.  1.
<mgrwt>
<rscale>  3 0.26126352E+03</rscale>
<asrwt>0</asrwt>
<pdfrwt beam="1">  1       21 0.16474642E-01 0.26126352E+03</pdfrwt>
<pdfrwt beam="2">  1        1 0.11276878E+00 0.26126352E+03</pdfrwt>
<totfact> 0.95421983E+03</totfact>
</mgrwt>
</event>
<event>
 4    0  0.1002184E-001  0.2652570E+03  0.7546771E-02  0.1104025E+00
          2   -1    0    0  502    0 -0.00000000000E+00  0.00000000000E+00  0.10998409791E+04  0.10998409791E+04  0.00000000000E+00 0.  1.
         21   -1    0    0  501  502  0.00000000000E+00 -0.00000000000E+00 -0.70153604131E+02  0.70153604131E+02  0.00000000000E+00 0. -1.
         25    1    1    2    0    0 -0.23013476866E+03 -0.42122188545E+02  0.28464065676E+03  0.38907787651E+03  0.12500000000E+03 0.  0.
          2    1    1    2  501    0  0.23013476866E+03  0.42122188545E+02  0.74504671820E+03  0.78091670670E+03  0.00000000000E+00 0.  1.
<mgrwt>
<rscale>  3 0.26525703E+03</rscale>
<asrwt>0</asrwt>
<pdfrwt beam="1">  1       21 0.10792863E-01 0.26525703E+03</pdfrwt>
<pdfrwt beam="2">  1        2 0.16920629E+00 0.26525703E+03</pdfrwt>
<totfact> 0.20330935E+04</totfact>
</mgrwt>
</event>
<event>
 4    0  0.1002184E-001  0.2544959E+03  0.7546771E-02  0.1110496E+00
         21   -1    0    0  501  502  0.00000000000E+00  0.00000000000E+00  0.13626233819E+03  0.13626233819E+03  0.00000000000E+00 0.  1.
         -2   -1    0    0    0  501 -0.00000000000E+00 -0.00000000000E+00 -0.52928956004E+03  0.52928956004E+03  0.00000000000E+00 0. -1.
         25    1    1    2    0    0  0.19446329831E+03 -0.10642923158E+03 -0.53494077849E+02  0.26005724771E+03  0.12500000000E+03 0.  0.
         -2    1    1    2    0  502 -0.19446329831E+03  0.10642923158E+03 -0.33953314400E+03  0.40549465052E+03  0.00000000000E+00 0. -1.
<mgrwt>
<rscale>  3 0.25449589E+03</rscale>
<asrwt>0</asrwt>
<pdfrwt beam="1">  1       21 0.20963437E-01 0.25449589E+03</pdfrwt>
<pdfrwt beam="2">  1       -2 0.81429162E-01 0.25449589E+03</pdfrwt>
<totfact> 0.23389983E+03</totfact>
</mgrwt>
</event>
<event>
 4    0  0.1112309E-001  0.2655336E+03  0.7546771E-02  0.1103863E+00
          4   -1    0    0  502    0 -0.00000000000E+00  0.00000000000E+00  0.87197655095E+03  0.87197655095E+03  0.00000000000E+00 0.  1.
         21   -1    0    0  501  502  0.00000000000E+00 -0.00000000000E+00 -0.13906461795E+03  0.13906461795E+03  0.00000000000E+00 0. -1.
         25    1    1    2    0    0  0.22392372005E+03  0.68856844508E+02  0.26566727200E+02  0.26685930456E+03  0.12500000000E+03 0.  0.
          4    1    1    2  501    0 -0.22392372005E+03 -0.68856844508E+02  0.70634520581E+03  0.74418186433E+03  0.00000000000E+00 0.  1.
<mgrwt>
<rscale>  3 0.26553361E+03</rscale>
<asrwt>0</asrwt>
<pdfrwt beam="1">  1       21 0.21394557E-01 0.26553361E+03</pdfrwt>
<pdfrwt beam="2">  1        4 0.13415024E+00 0.26553361E+03</pdfrwt>
<totfact> 0.35815891E+02</totfact>
</mgrwt>
</event>
<event>
 4    0  0.1350779E-001  0.2596055E+03  0.7546771E-02  0.1107380E+00
         21   -1    0    0  501  502  0.00000000000E+00  0.00000000000E+00  0.62886389402E+02  0.62886389402E+02  0.00000000000E+00 0. -1.
          3   -1    0    0  502    0 -0.00000000000E+00 -0.00000000000E+00 -0.25486862020E+04  0.25486862020E+04  0.00000000000E+00 0. -1.
         25    1    1    2    0    0  0.21530858986E+03  0.73567928642E+02 -0.23770359566E+03  0.35199151748E+03  0.12500000000E+03 0.  0.
          3    1    1    2  501    0 -0.21530858986E+03 -0.73567928642E+02 -0.22480962169E+04  0.22595810739E+04  0.00000000000E+00 0. -1.
<mgrwt>
<rscale>  3 0.25960553E+03</rscale>
<asrwt>0</asrwt>
<pdfrwt beam="1">  1       21 0.96748300E-02 0.25960553E+03</pdfrwt>
<pdfrwt beam="2">  1        3 0.39210554E+00 0.25960553E+03</pdfrwt>
<totfact> 0.62392637E+01</totfact>
</mgrwt>
</event>
<event>
 4    0  0.1462482E-001  0.2904929E+03  0.7546771E-02  0.1090092E+00
          2   -1    0    0  502    0 -0.00000000000E+00  0.00000000000E+00  0.25026127969E+04  0.25026127969E+04  0.00000000000E+00 0. -1.
         21   -1    0    0  501  502  0.00000000000E+00 -0.00000000000E+00 -0.31061967783E+02  0.31061967783E+02  0.00000000000E+00 0. -1.
         25    1    1    2    0    0  0.17298498285E+03 -0.19707187762E+03  0.14653589305E+04  0.14938751369E+04  0.12500000000E+03 0.  0.
          2    1    1    2  501    0 -0.17298498285E+03  0.19707187762E+03  0.10061918986E+04  0.10397996278E+04  0.00000000000E+00 0. -1.
<mgrwt>
<rscale>  3 0.29049291E+03</rscale>
<asrwt>0</asrwt>
<pdfrwt beam="1">  1       21 0.47787662E-02 0.29049291E+03</pdfrwt>
<pdfrwt beam="2">  1        2 0.38501720E+00 0.29049291E+03</pdfrwt>
<totfact> 0.14649705E+04</totfact>
</mgrwt>
</event>
<event>
 4    0  0.1422845E-001  0.2431795E+03  0.7546771E-02  0.1117693E+00
         -1   -1    0    0    0  501 -0.00000000000E+00  0.00000000000E+00  0.13026590224E+04  0.13026590224E+04  0.00000000000E+00 0.  1.
         21   -1    0    0  501  502  0.00000000000E+00 -0.00000000000E+00 -0.41037382970E+03  0.41037382970E+03  0.00000000000E+00 0. -1.
         25    1    1    2    0    0  0.70569713098E+02  0.19629364639E+03 -0.36498424864E+03  0.43857699640E+03  0.12500000000E+03 0.  0.
         -1    1    1    2    0  502 -0.70569713098E+02 -0.19629364639E+03  0.12572694414E+04  0.12744558557E+04  0.00000000000E+00 0.  1.
<mgrwt>
<rscale>  3 0.24317952E+03</rscale>
<asrwt>0</asrwt>
<pdfrwt beam="1">  1       21 0.63134436E-01 0.24317952E+03</pdfrwt>
<pdfrwt beam="2">  1       -1 0.20040908E+00 0.24317952E+03</pdfrwt>
<totfact> 0.35383938E+01</totfact>
</mgrwt>
</event>
<event>
 4    0  0.1753154E-001  0.3286314E+03  0.7546771E-02  0.1071744E+00
         -2   -1    0    0    0  501 -0.00000000000E+00  0.00000000000E+00  0.70917797196E+03  0.70917797196E+03  0.00000000000E+00 0. -1.
         21   -1    0    0  501  502  0.00000000000E+00 -0.00000000000E+00 -0.14879405132E+03  0.14879405132E+03  0.00000000000E+00 0. -1.
         25    1    1    2    0    0  0.30353105572E+03  0.15573164744E+02  0.38832414694E+03  0.50871826028E+03  0.12500000000E+03 0.  0.
         -2    1    1    2    0  502 -0.30353105572E+03 -0.15573164744E+02  0.17205977369E+03  0.34925376300E+03  0.00000000000E+00 0. -1.
<mgrwt>
<rscale>  3 0.32863144E+03</rscale>
<asrwt>0</asrwt>
<pdfrwt beam="1">  1       21 0.22891393E-01 0.32863144E+03</pdfrwt>
<pdfrwt beam="2">  1       -2 0.10910430E+00 0.32863144E+03</pdfrwt>
<totfact> 0.99517345E+02</totfact>
</mgrwt>
</event>
<event>
 4    0  0.1134089E-001  0.2393393E+03  0.7546771E-02  0.1120234E+00
          2   -1    0    0  502    0 -0.00000000000E+00  0.00000000000E+00  0.22222341031E+04  0.22222341031E+04  0.00000000000E+00 0. -1.
         21   -1    0    0  501  502  0.00000000000E+00 -0.00000000000E+00 -0.53219563555E+02  0.53219563555E+02  0.00000000000E+00 0.  1.
         25    1    1    2    0    0  0.14091625814E+03 -0.14765123770E+03  0.25177844795E+03  0.34738403339E+03  0.12500000000E+03 0.  0.
          2    1    1    2  501    0 -0.14091625814E+03  0.14765123770E+03  0.19172360916E+04  0.19280696332E+04  0.00000000000E+00 0. -1.
<mgrwt>
<rscale>  3 0.23933926E+03</rscale>
<asrwt>0</asrwt>
<pdfrwt beam="1">  1       21 0.81876269E-02 0.23933926E+03</pdfrwt>
<pdfrwt beam="2">  1        2 0.34188210E+00 0.23933926E+03</pdfrwt>
<totfact> 0.83292057E+03</totfact>
</mgrwt>
</event>
<event>
 4    0  0.1110158E-001  0.4039720E+03  0.7546771E-02  0.1042413E+00
         21   -1    0    0  501  502  0.00000000000E+00  0.00000000000E+00  0.11089371426E+03  0.11089371426E+03  0.00000000000E+00 0. -1.
          2   -1    0    0  502    0 -0.00000000000E+00 -0.00000000000E+00 -0.24755687869E+04  0.24755687869E+04  0.00000000000E+00 0. -1.
         25    1    1    2    0    0  0.18853791814E+03 -0.33469662661E+03 -0.34699782068E+03  0.53254189131E+03  0.12500000000E+03 0.  0.
          2    1    1    2  501    0 -0.18853791814E+03  0.33469662661E+03 -0.20176772519E+04  0.20539206098E+04  0.00000000000E+00 0. -1.
<mgrwt>
<rscale>  3 0.40397200E+03</rscale>
<asrwt>0</asrwt>
<pdfrwt beam="1">  1       21 0.17060572E-01 0.40397200E+03</pdfrwt>
<pdfrwt beam="2">  1        2 0.38085673E+00 0.40397200E+03</pdfrwt>
<totfact> 0.15165004E+03</totfact>
</mgrwt>
</event>
<event>
 4    0  0.1433058E-001  0.2749266E+03  0.7546771E-02  0.1098493E+00
          1   -1    0    0  502    0 -0.00000000000E+00  0.00000000000E+00  0.18246971178E+04  0.18246971178E+04  0.00000000000E+00 0.  1.
         21   -1    0    0  501  502  0.00000000000E+00 -0.00000000000E+00 -0.71156696008E+02  0.71156696008E+02  0.00000000000E+00 0.  1.
         25    1    1    2    0    0 -0.15561092313E+03  0.18906319549E+03  0.24713323785E+03  0.36967484163E+03  0.12500000000E+03 0.  0.
          1    1    1    2  501    0  0.15561092313E+03 -0.18906319549E+03  0.15064071839E+04  0.15261789721E+04  0.00000000000E+00 0.  1.
<mgrwt>
<rscale>  3 0.27492663E+03</rscale>
<asrwt>0</asrwt>
<pdfrwt beam="1">  1       21 0.10947185E-01 0.27492663E+03</pdfrwt>
<pdfrwt beam="2">  1        1 0.28072260E+00 0.27492663E+03</pdfrwt>
<totfact> 0.33407184E+03</totfact>
</mgrwt>
</event>
<event>
 4    0  0.1573758E-001  0.3037504E+03  0.7546771E-02  0.1083381E+00
          1   -1    0    0  502    0 -0.00000000000E+00  0.00000000000E+00  0.20779717094E+04  0.20779717094E+04  0.00000000000E+00 0. -1.
         21   -1    0    0  501  502  0.00000000000E+00 -0.00000000000E+00 -0.43130688766E+02  0.43130688766E+02  0.00000000000E+00 0. -1.
         25    1    1    2    0    0 -0.34127016021E+02  0.27472649615E+03  0.13207068929E+04  0.13551867022E+04  0.12500000000E+03 0.  0.
          1    1    1    2  501    0  0.34127016021E+02 -0.27472649615E+03  0.71413412774E+03  0.76591569595E+03  0.00000000000E+00 0. -1.
<mgrwt>
<rscale>  3 0.30375039E+03</rscale>
<asrwt>0</asrwt>
<pdfrwt beam="1">  1       21 0.66354922E-02 0.30375039E+03</pdfrwt>
<pdfrwt beam="2">  1        1 0.31968788E+00 0.30375039E+03</pdfrwt>
<totfact> 0.54752421E+03</totfact>
</mgrwt>
</event>
<event>
 4    0  0.1664299E-001  0.2722041E+03  0.7546771E-02  0.1100025E+00
         21   -1    0    0  501  502  0.00000000000E+00  0.00000000000E+00  0.41274432951E+02  0.41274432951E+02  0.00000000000E+00 0. -1.
          1   -1    0    0  502    0 -0.00000000000E+00 -0.00000000000E+00 -0.17500092040E+04  0.17500092040E+04  0.00000000000E+00 0. -1.
         25    1    1    2    0    0  0.71013057805E+02 -0.23114329169E+03 -0.63903078267E+03  0.69459010709E+03  0.12500000000E+03 0.  0.
          1    1    1    2  501    0 -0.71013057805E+02  0.23114329169E+03 -0.10697039883E+04  0.10966935298E+04  0.00000000000E+00 0. -1.
<mgrwt>
<rscale>  3 0.27220411E+03</rscale>
<asrwt>0</asrwt>
<pdfrwt beam="1">  1       21 0.63499129E-02 0.27220411E+03</pdfrwt>
<pdfrwt beam="2">  1        1 0.26923218E+00 0.27220411E+03</pdfrwt>
<totfact> 0.97528257E+03</totfact>
</mgrwt>
</event>
<event>
 4    0  0.1323289E-001  0.2609728E+03  0.7546771E-02  0.1106560E+00
          2   -1    0    0  502    0 -0.00000000000E+00  0.00000000000E+00  0.70783387459E+03  0.70783387459E+03  0.00000000000E+00 0. -1.
         21   -1    0    0  501  502  0.00000000000E+00 -0.00000000000E+00 -0.14106853574E+03  0.14106853574E+03  0.00000000000E+00 0. -1.
         25    1    1    2    0    0  0.39138996099E+01 -0.22905561321E+03  0.26794857490E+02  0.26234472921E+03  0.12500000000E+03 0.  0.
          2    1    1    2  501    0 -0.39138996099E+01  0.22905561321E+03  0.53997048135E+03  0.58655768112E+03  0.00000000000E+00 0. -1.
<mgrwt>
<rscale>  3 0.26097278E+03</rscale>
<asrwt>0</asrwt>
<pdfrwt beam="1">  1       21 0.21702852E-01 0.26097278E+03</pdfrwt>
<pdfrwt beam="2">  1        2 0.10889752E+00 0.26097278E+03</pdfrwt>
<totfact> 0.10164629E+04</totfact>
</mgrwt>
</event>
<event>
 4    0  0.1379396E-001  0.2453676E+03  0.7546771E-02  0.1116268E+00
          1   -1    0    0  502    0 -0.00000000000E+00  0.00000000000E+00  0.32847071675E+03  0.32847071675E+03  0.00000000000E+00 0.  1.
         21   -1    0    0  501  502  0.00000000000E+00 -0.00000000000E+00 -0.18374740076E+03  0.18374740076E+03  0.00000000000E+00 0.  1.
         25    1    1    2    0    0  0.95805004490E+02  0.18815334131E+03  0.17153534008E+03  0.29938211641E+03  0.12500000000E+03 0.  0.
          1    1    1    2  501    0 -0.95805004490E+02 -0.18815334131E+03 -0.26812024086E+02  0.21283600110E+03  0.00000000000E+00 0.  1.
<mgrwt>
<rscale>  3 0.24536764E+03</rscale>
<asrwt>0</asrwt>
<pdfrwt beam="1">  1       21 0.28268831E-01 0.24536764E+03</pdfrwt>
<pdfrwt beam="2">  1        1 0.50533956E-01 0.24536764E+03</pdfrwt>
<totfact> 0.10118483E+04</totfact>
</mgrwt>
</event>
<event>
 4    0  0.1469924E-001  0.2655592E+03  0.7546771E-02  0.1103848E+00
         21   -1    0    0  501  502  0.00000000000E+00  0.00000000000E+00  0.90380152879E+03  0.90380152879E+03  0.00000000000E+00 0. -1.
          2   -1    0    0  502    0 -0.00000000000E+00 -0.00000000000E+00 -0.41928662813E+03  0.41928662813E+03  0.00000000000E+00 0.  1.
         25    1    1    2    0    0  0.93464716721E+02  0.21485117074E+03  0.84912709645E+03  0.88968449731E+03  0.12500000000E+03 0.  0.
          2    1    1    2  501    0 -0.93464716721E+02 -0.21485117074E+03 -0.36461219579E+03  0.43340365961E+03  0.00000000000E+00 0.  1.
<mgrwt>
<rscale>  3 0.26555918E+03</rscale>
<asrwt>0</asrwt>
<pdfrwt beam="1">  1       21 0.13904639E+00 0.26555918E+03</pdfrwt>
<pdfrwt beam="2">  1        2 0.64505635E-01 0.26555918E+03</pdfrwt>
<totfact> 0.32926432E+02</totfact>
</mgrwt>
</event>
<event>
 4    0  0.1357515E-001  0.2370600E+03  0.7546771E-02  0.1121767E+00
         21   -1    0    0  501  502  0.00000000000E+00  0.00000000000E+00  0.13816107574E+03  0.13816107574E+03  0.00000000000E+00 0.  1.
          1   -1    0    0  502    0 -0.00000000000E+00 -0.00000000000E+00 -0.43542685335E+03  0.43542685335E+03  0.00000000000E+00 0.  1.
         25    1    1    2    0    0 -0.17915640197E+03  0.92062015730E+02 -0.30047388846E+02  0.23895664185E+03  0.12500000000E+03 0.  0.
          1    1    1    2  501    0  0.17915640197E+03 -0.92062015730E+02 -0.26721838876E+03  0.33463128724E+03  0.00000000000E+00 0.  1.
<mgrwt>
<rscale>  3 0.23705997E+03</rscale>
<asrwt>0</asrwt>
<pdfrwt beam="1">  1       21 0.21255550E-01 0.23705997E+03</pdfrwt>
<pdfrwt beam="2">  1        1 0.66988747E-01 0.23705997E+03</pdfrwt>
<totfact> 0.12203254E+04</totfact>
</mgrwt>
</event>
<event>
 4    0  0.1281074E-001  0.2421837E+03  0.7546771E-02  0.1118347E+00
         21   -1    0    0  501  502  0.00000000000E+00  0.00000000000E+00  0.72980803558E+02  0.72980803558E+02  0.00000000000E+00 0.  1.
          2   -1    0    0  502    0 -0.00000000000E+00 -0.00000000000E+00 -0.18027682257E+04  0.18027682257E+04  0.00000000000E+00 0.  1.
         25    1    1    2    0    0  0.19114627436E+03  0.80567157812E+02 -0.15539594454E+03  0.28775139391E+03  0.12500000000E+03 0.  0.
          2    1    1    2  501    0 -0.19114627436E+03 -0.80567157812E+02 -0.15743914776E+04  0.15879976353E+04  0.00000000000E+00 0.  1.
<mgrwt>
<rscale>  3 0.24218374E+03</rscale>
<asrwt>0</asrwt>
<pdfrwt beam="1">  1       21 0.11227816E-01 0.24218374E+03</pdfrwt>
<pdfrwt beam="2">  1        2 0.27734896E+00 0.24218374E+03</pdfrwt>
<totfact> 0.79001320E+03</totfact>
</mgrwt>
</event>
<event>
 4    0  0.1045777E-001  0.3121016E+03  0.7546771E-02  0.1079343E+00
         -4   -1    0    0    0  501 -0.00000000000E+00  0.00000000000E+00  0.17883632771E+03  0.17883632771E+03  0.00000000000E+00 0.  1.
         21   -1    0    0  501  502  0.00000000000E+00 -0.00000000000E+00 -0.19233394069E+04  0.19233394069E+04  0.00000000000E+00 0.  1.
         25    1    1    2    0    0  0.25254289938E+03  0.13418072688E+03 -0.17861238880E+04  0.18131866773E+04  0.12500000000E+03 0.  0.
         -4    1    1    2    0  502 -0.25254289938E+03 -0.13418072688E+03  0.41620808837E+02  0.28898905727E+03  0.00000000000E+00 0.  1.
<mgrwt>
<rscale>  3 0.31210156E+03</rscale>
<asrwt>0</asrwt>
<pdfrwt beam="1">  1       21 0.29589839E+00 0.31210156E+03</pdfrwt>
<pdfrwt beam="2">  1       -4 0.27513279E-01 0.31210156E+03</pdfrwt>
<totfact> 0.17483937E+01</totfact>
</mgrwt>
</event>
<event>
 4    0  0.1320185E-001  0.2523049E+03  0.7546771E-02  0.1111857E+00
          2   -1    0    0  502    0 -0.00000000000E+00  0.00000000000E+00  0.34589766423E+03  0.34589766423E+03  0.00000000000E+00 0.  1.
         21   -1    0    0  501  502  0.00000000000E+00 -0.00000000000E+00 -0.19695107178E+03  0.19695107178E+03  0.00000000000E+00 0.  1.
         25    1    1    2    0    0 -0.12767497580E+03  0.17813432798E+03 -0.37538957584E+02  0.25508216634E+03  0.12500000000E+03 0.  0.
          2    1    1    2  501    0  0.12767497580E+03 -0.17813432798E+03  0.18648555003E+03  0.28776656967E+03  0.00000000000E+00 0.  1.
<mgrwt>
<rscale>  3 0.25230485E+03</rscale>
<asrwt>0</asrwt>
<pdfrwt beam="1">  1       21 0.30300165E-01 0.25230485E+03</pdfrwt>
<pdfrwt beam="2">  1        2 0.53215025E-01 0.25230485E+03</pdfrwt>
<totfact> 0.12029018E+04</totfact>
</mgrwt>
</event>
<event>
 4    0  0.1006674E-001  0.2925766E+03  0.7546771E-02  0.1089012E+00
         -4   -1    0    0    0  501 -0.00000000000E+00  0.00000000000E+00  0.13279831600E+04  0.13279831600E+04  0.00000000000E+00 0.  1.
         21   -1    0    0  501  502  0.00000000000E+00 -0.00000000000E+00 -0.10511112276E+03  0.10511112276E+03  0.00000000000E+00 0. -1.
         25    1    1    2    0    0  0.18216815577E+03  0.19180930585E+03  0.15135550264E+03  0.32940785505E+03  0.12500000000E+03 0.  0.
         -4    1    1    2    0  502 -0.18216815577E+03 -0.19180930585E+03  0.10715165346E+04  0.11036864277E+04  0.00000000000E+00 0.  1.
<mgrwt>
<rscale>  3 0.29257657E+03</rscale>
<asrwt>0</asrwt>
<pdfrwt beam="1">  1       21 0.16170943E-01 0.29257657E+03</pdfrwt>
<pdfrwt beam="2">  1       -4 0.20430509E+00 0.29257657E+03</pdfrwt>
<totfact> 0.19265374E+02</totfact>
</mgrwt>
</event>
<event>
 4    0  0.1593681E-001  0.3493750E+03  0.7546771E-02  0.1062872E+00
         21   -1    0    0  501  502  0.00000000000E+00  0.00000000000E+00  0.46153561661E+03  0.46153561661E+03  0.00000000000E+00 0. -1.
          1   -1    0    0  502    0 -0.00000000000E+00 -0.00000000000E+00 -0.12947949133E+04  0.12947949133E+04  0.00000000000E+00 0. -1.
         25    1    1    2    0    0  0.14389624561E+03 -0.29279988390E+03  0.37043875142E+03  0.50920307351E+03  0.12500000000E+03 0.  0.
          1    1    1    2  501    0 -0.14389624561E+03  0.29279988390E+03 -0.12036980482E+04  0.12471274565E+04  0.00000000000E+00 0. -1.
<mgrwt>
<rscale>  3 0.34937502E+03</rscale>
<asrwt>0</asrwt>
<pdfrwt beam="1">  1       21 0.71005480E-01 0.34937502E+03</pdfrwt>
<pdfrwt beam="2">  1        1 0.19919921E+00 0.34937502E+03</pdfrwt>
<totfact> 0.18190613E+02</totfact>
</mgrwt>
</event>
<event>
 4    0  0.1328133E-001  0.3464369E+03  0.7546771E-02  0.1064087E+00
         21   -1    0    0  501  502  0.00000000000E+00  0.00000000000E+00  0.10927984218E+03  0.10927984218E+03  0.00000000000E+00 0. -1.
          2   -1    0    0  502    0 -0.00000000000E+00 -0.00000000000E+00 -0.20306099477E+04  0.20306099477E+04  0.00000000000E+00 0. -1.
         25    1    1    2    0    0  0.31824460319E+03  0.55802013402E+02 -0.22506114206E+03  0.41312348011E+03  0.12500000000E+03 0.  0.
          2    1    1    2  501    0 -0.31824460319E+03 -0.55802013402E+02 -0.16962689634E+04  0.17267663097E+04  0.00000000000E+00 0. -1.
<mgrwt>
<rscale>  3 0.34643685E+03</rscale>
<asrwt>0</asrwt>
<pdfrwt beam="1">  1       21 0.16812284E-01 0.34643685E+03</pdfrwt>
<pdfrwt beam="2">  1        2 0.31240152E+00 0.34643685E+03</pdfrwt>
<totfact> 0.27662070E+03</totfact>
</mgrwt>
</event>
<event>
 4    0  0.1082657E-001  0.3269583E+03  0.7546771E-02  0.1072491E+00
          3   -1    0    0  502    0 -0.00000000000E+00  0.00000000000E+00  0.17649873021E+03  0.17649873021E+03  0.00000000000E+00 0. -1.
         21   -1    0    0  501  502  0.00000000000E+00 -0.00000000000E+00 -0.90254051219E+03  0.90254051219E+03  0.00000000000E+00 0. -1.
         25    1    1    2    0    0 -0.29617696252E+03 -0.59631557561E+02 -0.70387499162E+03  0.77610677075E+03  0.12500000000E+03 0.  0.
          3    1    1    2  501    0  0.29617696252E+03  0.59631557561E+02 -0.22166790363E+02  0.30293247164E+03  0.00000000000E+00 0. -1.
<mgrwt>
<rscale>  3 0.32695828E+03</rscale>
<asrwt>0</asrwt>
<pdfrwt beam="1">  1       21 0.13885239E+00 0.32695828E+03</pdfrwt>
<pdfrwt beam="2">  1        3 0.27153651E-01 0.32695828E+03</pdfrwt>
<totfact> 0.22349759E+02</totfact>
</mgrwt>
</event>
<event>
 4    0  0.1948845E-001  0.2866215E+03  0.7546771E-02  0.1092126E+00
         -2   -1    0    0    0  501 -0.00000000000E+00  0.00000000000E+00  0.13210930338E+04  0.13210930338E+04  0.00000000000E+00 0.  1.
         21   -1    0    0  501  502  0.00000000000E+00 -0.00000000000E+00 -0.59349341332E+02  0.59349341332E+02  0.00000000000E+00 0.  1.
         25    1    1    2    0    0 -0.21844459391E+03  0.13714542299E+03  0.50139354578E+03  0.57753562263E+03  0.12500000000E+03 0.  0.
         -2    1    1    2    0  502  0.21844459391E+03 -0.13714542299E+03  0.76035014671E+03  0.80290675253E+03  0.00000000000E+00 0.  1.
<mgrwt>
<rscale>  3 0.28662154E+03</rscale>
<asrwt>0</asrwt>
<pdfrwt beam="1">  1       21 0.91306689E-02 0.28662154E+03</pdfrwt>
<pdfrwt beam="2">  1       -2 0.20324506E+00 0.28662154E+03</pdfrwt>
<totfact> 0.10655112E+03</totfact>
</mgrwt>
</event>
<event>
 4    0  0.1002184E-001  0.2398829E+03  0.7546771E-02  0.1119871E+00
          1   -1    0    0  502    0 -0.00000000000E+00  0.00000000000E+00  0.62453928492E+02  0.62453928492E+02  0.00000000000E+00 0. -1.
         21   -1    0    0  501  502  0.00000000000E+00 -0.00000000000E+00 -0.86844150851E+03  0.86844150851E+03  0.00000000000E+00 0.  1.
         25    1    1    2    0    0 -0.57831937316E+02  0.19640339928E+03 -0.57030413263E+03  0.61870076120E+03  0.12500000000E+03 0.  0.
          1    1    1    2  501    0  0.57831937316E+02 -0.19640339928E+03 -0.23568344739E+03  0.31219467580E+03  0.00000000000E+00 0. -1.
<mgrwt>
<rscale>  3 0.23988295E+03</rscale>
<asrwt>0</asrwt>
<pdfrwt beam="1">  1       21 0.13360638E+00 0.23988295E+03</pdfrwt>
<pdfrwt beam="2">  1        1 0.96082971E-02 0.23988295E+03</pdfrwt>
<totfact> 0.28533338E+03</totfact>
</mgrwt>
</event>
<event>
 4    0  0.1086630E-001  0.2561250E+03  0.7546771E-02  0.1109494E+00
          2   -1    0    0  502    0 -0.00000000000E+00  0.00000000000E+00  0.27942776489E+04  0.27942776489E+04  0.00000000000E+00 0.  1.
         21   -1    0    0  501  502  0.00000000000E+00 -0.00000000000E+00 -0.22734810547E+03  0.22734810547E+03  0.00000000000E+00 0.  1.
         25    1    1    2    0    0 -0.16669600156E+03 -0.14895453224E+03 -0.14913272435E+03  0.29637911378E+03  0.12500000000E+03 0.  0.
          2    1    1    2  501    0  0.16669600156E+03  0.14895453224E+03  0.27160622678E+04  0.27252466406E+04  0.00000000000E+00 0.  1.
<mgrwt>
<rscale>  3 0.25612499E+03</rscale>
<asrwt>0</asrwt>
<pdfrwt beam="1">  1       21 0.34976633E-01 0.25612499E+03</pdfrwt>
<pdfrwt beam="2">  1        2 0.42988885E+00 0.25612499E+03</pdfrwt>
<totfact> 0.26979187E+02</totfact>
</mgrwt>
</event>
<event>
 4    0  0.1188078E-001  0.2654741E+03  0.7546771E-02  0.1103898E+00
          3   -1    0    0  502    0 -0.00000000000E+00  0.00000000000E+00  0.23172317033E+03  0.23172317033E+03  0.00000000000E+00 0. -1.
         21   -1    0    0  501  502  0.00000000000E+00 -0.00000000000E+00 -0.49676167935E+03  0.49676167935E+03  0.00000000000E+00 0. -1.
         25    1    1    2    0    0  0.20833153136E+03  0.10700230811E+03 -0.38318952370E+03  0.46616599186E+03  0.12500000000E+03 0.  0.
          3    1    1    2  501    0 -0.20833153136E+03 -0.10700230811E+03  0.11815101467E+03  0.26231885782E+03  0.00000000000E+00 0. -1.
<mgrwt>
<rscale>  3 0.26547414E+03</rscale>
<asrwt>0</asrwt>
<pdfrwt beam="1">  1       21 0.76424873E-01 0.26547414E+03</pdfrwt>
<pdfrwt beam="2">  1        3 0.35649719E-01 0.26547414E+03</pdfrwt>
<totfact> 0.57524759E+02</totfact>
</mgrwt>
</event>
<event>
 4    0  0.1002184E-001  0.2392441E+03  0.7546771E-02  0.1120297E+00
         21   -1    0    0  501  502  0.00000000000E+00  0.00000000000E+00  0.10351642312E+04  0.10351642312E+04  0.00000000000E+00 0.  1.
          2   -1    0    0  502    0 -0.00000000000E+00 -0.00000000000E+00 -0.11491765938E+04  0.11491765938E+04  0.00000000000E+00 0. -1.
         25    1    1    2    0    0 -0.20370873792E+03 -0.10747010915E+02  0.10120534669E+04  0.10399470987E+04  0.12500000000E+03 0.  0.
          2    1    1    2  501    0  0.20370873792E+03  0.10747010915E+02 -0.11260658296E+04  0.11443937263E+04  0.00000000000E+00 0. -1.
<mgrwt>
<rscale>  3 0.23924412E+03</rscale>
<asrwt>0</asrwt>
<pdfrwt beam="1">  1       21 0.15925604E+00 0.23924412E+03</pdfrwt>
<pdfrwt beam="2">  1        2 0.17679640E+00 0.23924412E+03</pdfrwt>
<totfact> 0.66563002E+01</totfact>
</mgrwt>
</event>
<event>
 4    0  0.1002184E-001  0.2445263E+03  0.7546771E-02  0.1116814E+00
         21   -1    0    0  501  502  0.00000000000E+00  0.00000000000E+00  0.99604022857E+02  0.99604022857E+02  0.00000000000E+00 0.  1.
          1   -1    0    0  502    0 -0.00000000000E+00 -0.00000000000E+00 -0.52199156682E+03  0.52199156682E+03  0.00000000000E+00 0. -1.
         25    1    1    2    0    0  0.10856125717E+02  0.20988157382E+03 -0.25087751740E+03  0.35033221267E+03  0.12500000000E+03 0.  0.
          1    1    1    2  501    0 -0.10856125717E+02 -0.20988157382E+03 -0.17151002656E+03  0.27126337701E+03  0.00000000000E+00 0. -1.
<mgrwt>
<rscale>  3 0.24452634E+03</rscale>
<asrwt>0</asrwt>
<pdfrwt beam="1">  1       21 0.15323696E-01 0.24452634E+03</pdfrwt>
<pdfrwt beam="2">  1        1 0.80306394E-01 0.24452634E+03</pdfrwt>
<totfact> 0.17636970E+04</totfact>
</mgrwt>
</event>
<event>
 4    0  0.1821932E-001  0.3783231E+03  0.7546771E-02  0.1051555E+00
         21   -1    0    0  501  502  0.00000000000E+00  0.00000000000E+00  0.12235916241E+03  0.12235916241E+03  0.00000000000E+00 0. -1.
         -1   -1    0    0    0  501 -0.00000000000E+00 -0.00000000000E+00 -0.11964305958E+04  0.11964305958E+04  0.00000000000E+00 0. -1.
         25    1    1    2    0    0 -0.15099604030E+03  0.32357926826E+03 -0.36912052368E+03  0.52856249208E+03  0.12500000000E+03 0.  0.
         -1    1    1    2    0  502  0.15099604030E+03 -0.32357926826E+03 -0.70495090969E+03  0.79022726611E+03  0.00000000000E+00 0. -1.
<mgrwt>
<rscale>  3 0.37832307E+03</rscale>
<asrwt>0</asrwt>
<pdfrwt beam="1">  1       21 0.18824486E-01 0.37832307E+03</pdfrwt>
<pdfrwt beam="2">  1       -1 0.18406625E+00 0.37832307E+03</pdfrwt>
<totfact> 0.49405295E+02</totfact>
</mgrwt>
</event>
<event>
 4    0  0.1002184E-001  0.3141306E+03  0.7546771E-02  0.1078383E+00
          2   -1    0    0  502    0 -0.00000000000E+00  0.00000000000E+00  0.14816282325E+04  0.14816282325E+04  0.00000000000E+00 0. -1.
         21   -1    0    0  501  502  0.00000000000E+00 -0.00000000000E+00 -0.77539565195E+02  0.77539565195E+02  0.00000000000E+00 0.  1.
         25    1    1    2    0    0 -0.27822886382E+03 -0.75111386090E+02  0.36846999406E+03  0.48419846913E+03  0.12500000000E+03 0.  0.
          2    1    1    2  501    0  0.27822886382E+03  0.75111386090E+02  0.10356186732E+04  0.10749693285E+04  0.00000000000E+00 0. -1.
<mgrwt>
<rscale>  3 0.31413058E+03</rscale>
<asrwt>0</asrwt>
<pdfrwt beam="1">  1       21 0.11929165E-01 0.31413058E+03</pdfrwt>
<pdfrwt beam="2">  1        2 0.22794278E+00 0.31413058E+03</pdfrwt>
<totfact> 0.10268754E+04</totfact>
</mgrwt>
</event>
<event>
 4    0  0.1002184E-001  0.2425126E+03  0.7546771E-02  0.1118130E+00
          1   -1    0    0  502    0 -0.00000000000E+00  0.00000000000E+00  0.22960288608E+03  0.22960288608E+03  0.00000000000E+00 0.  1.
         21   -1    0    0  501  502  0.00000000000E+00 -0.00000000000E+00 -0.32029900709E+03  0.32029900709E+03  0.00000000000E+00 0. -1.
         25    1    1    2    0    0  0.54375008862E+02  0.20057597459E+03 -0.20067942283E+03  0.31477705431E+03  0.12500000000E+03 0.  0.
          1    1    1    2  501    0 -0.54375008862E+02 -0.20057597459E+03  0.10998330182E+03  0.23512483886E+03  0.00000000000E+00 0.  1.
<mgrwt>
<rscale>  3 0.24251260E+03</rscale>
<asrwt>0</asrwt>
<pdfrwt beam="1">  1       21 0.49276770E-01 0.24251260E+03</pdfrwt>
<pdfrwt beam="2">  1        1 0.35323521E-01 0.24251260E+03</pdfrwt>
<totfact> 0.51863470E+03</totfact>
</mgrwt>
</event>
<event>
 4    0  0.1002184E-001  0.2402050E+03  0.7546771E-02  0.1119656E+00
         21   -1    0    0  501  502  0.00000000000E+00  0.00000000000E+00  0.24090463654E+02  0.24090463654E+02  0.00000000000E+00 0. -1.
          2   -1    0    0  502    0 -0.00000000000E+00 -0.00000000000E+00 -0.26224814472E+04  0.26224814472E+04  0.00000000000E+00 0.  1.
         25    1    1    2    0    0 -0.10033104226E+03  0.17890534175E+03 -0.76708752221E+03  0.80381696056E+03  0.12500000000E+03 0.  0.
          2    1    1    2  501    0  0.10033104226E+03 -0.17890534175E+03 -0.18313034613E+04  0.18427549503E+04  0.00000000000E+00 0.  1.
<mgrwt>
<rscale>  3 0.24020499E+03</rscale>
<asrwt>0</asrwt>
<pdfrwt beam="1">  1       21 0.37062248E-02 0.24020499E+03</pdfrwt>
<pdfrwt beam="2">  1        2 0.40345872E+00 0.24020499E+03</pdfrwt>
<totfact> 0.19656895E+04</totfact>
</mgrwt>
</event>
<event>
 4    0  0.1102210E-001  0.2571870E+03  0.7546771E-02  0.1108845E+00
          1   -1    0    0  502    0 -0.00000000000E+00  0.00000000000E+00  0.18038081581E+03  0.18038081581E+03  0.00000000000E+00 0. -1.
         21   -1    0    0  501  502  0.00000000000E+00 -0.00000000000E+00 -0.10661842324E+04  0.10661842324E+04  0.00000000000E+00 0. -1.
         25    1    1    2    0    0 -0.20387855615E+03 -0.94624015434E+02  0.68496934179E+02  0.26615221199E+03  0.12500000000E+03 0.  0.
          1    1    1    2  501    0  0.20387855615E+03  0.94624015434E+02 -0.95430035073E+03  0.98041283619E+03  0.00000000000E+00 0. -1.
<mgrwt>
<rscale>  3 0.25718703E+03</rscale>
<asrwt>0</asrwt>
<pdfrwt beam="1">  1       21 0.16402834E+00 0.25718703E+03</pdfrwt>
<pdfrwt beam="2">  1        1 0.27750895E-01 0.25718703E+03</pdfrwt>
<totfact> 0.40997324E+02</totfact>
</mgrwt>
</event>
<event>
 4    0  0.1471825E-001  0.3750451E+03  0.7546771E-02  0.1052780E+00
          2   -1    0    0  502    0 -0.00000000000E+00  0.00000000000E+00  0.76852178086E+03  0.76852178086E+03  0.00000000000E+00 0.  1.
         21   -1    0    0  501  502  0.00000000000E+00 -0.00000000000E+00 -0.46980848876E+03  0.46980848876E+03  0.00000000000E+00 0.  1.
         25    1    1    2    0    0 -0.30567305620E+03  0.17775781967E+03 -0.34132441461E+03  0.50711065435E+03  0.12500000000E+03 0.  0.
          2    1    1    2  501    0  0.30567305620E+03 -0.17775781967E+03  0.64003770671E+03  0.73121961527E+03  0.00000000000E+00 0.  1.
<mgrwt>
<rscale>  3 0.37504514E+03</rscale>
<asrwt>0</asrwt>
<pdfrwt beam="1">  1       21 0.72278229E-01 0.37504514E+03</pdfrwt>
<pdfrwt beam="2">  1        2 0.11823412E+00 0.37504514E+03</pdfrwt>
<totfact> 0.75302193E+02</totfact>
</mgrwt>
</event>
<event>
 4    0  0.1002184E-001  0.3938106E+03  0.7546771E-02  0.1045944E+00
         21   -1    0    0  501  502  0.00000000000E+00  0.00000000000E+00  0.73241210632E+03  0.73241210632E+03  0.00000000000E+00 0.  1.
          3   -1    0    0  502    0 -0.00000000000E+00 -0.00000000000E+00 -0.25574812855E+03  0.25574812855E+03  0.00000000000E+00 0. -1.
         25    1    1    2    0    0 -0.26749102120E+03  0.26059614411E+03  0.47196465937E+03  0.61468482692E+03  0.12500000000E+03 0.  0.
          3    1    1    2  501    0  0.26749102120E+03 -0.26059614411E+03  0.46993184001E+01  0.37347540795E+03  0.00000000000E+00 0. -1.
<mgrwt>
<rscale>  3 0.39381061E+03</rscale>
<asrwt>0</asrwt>
<pdfrwt beam="1">  1       21 0.11267878E+00 0.39381061E+03</pdfrwt>
<pdfrwt beam="2">  1        3 0.39345866E-01 0.39381061E+03</pdfrwt>
<totfact> 0.18493831E+02</totfact>
</mgrwt>
</event>
<event>
 4    0  0.1002184E-001  0.2785941E+03  0.7546771E-02  0.1096459E+00
          1   -1    0    0  502    0 -0.00000000000E+00  0.00000000000E+00  0.10242352857E+04  0.10242352857E+04  0.00000000000E+00 0.  1.
         21   -1    0    0  501  502  0.00000000000E+00 -0.00000000000E+00 -0.83512684294E+02  0.83512684294E+02  0.00000000000E+00 0. -1.
         25    1    1    2    0    0 -0.64256852748E+02 -0.24054254720E+03  0.25294543779E+03  0.37629251207E+03  0.12500000000E+03 0.  0.
          1    1    1    2  501    0  0.64256852748E+02  0.24054254720E+03  0.68777716364E+03  0.73145545795E+03  0.00000000000E+00 0.  1.
<mgrwt>
<rscale>  3 0.27859408E+03</rscale>
<asrwt>0</asrwt>
<pdfrwt beam="1">  1       21 0.12848106E-01 0.27859408E+03</pdfrwt>
<pdfrwt beam="2">  1        1 0.15757465E+00 0.27859408E+03</pdfrwt>
<totfact> 0.87478943E+03</totfact>
</mgrwt>
</event>
<event>
 4    0  0.1074207E-001  0.2663568E+03  0.7546771E-02  0.1103383E+00
          1   -1    0    0  502    0 -0.00000000000E+00  0.00000000000E+00  0.38589831099E+03  0.38589831099E+03  0.00000000000E+00 0. -1.
         21   -1    0    0  501  502  0.00000000000E+00 -0.00000000000E+00 -0.36426038414E+03  0.36426038414E+03  0.00000000000E+00 0.  1.
         25    1    1    2    0    0 -0.20792794650E+03  0.10994050124E+03 -0.26746097300E+03  0.37746697449E+03  0.12500000000E+03 0.  0.
          1    1    1    2  501    0  0.20792794650E+03 -0.10994050124E+03  0.28909889984E+03  0.37269172065E+03  0.00000000000E+00 0. -1.
<mgrwt>
<rscale>  3 0.26635680E+03</rscale>
<asrwt>0</asrwt>
<pdfrwt beam="1">  1       21 0.56040059E-01 0.26635680E+03</pdfrwt>
<pdfrwt beam="2">  1        1 0.59368971E-01 0.26635680E+03</pdfrwt>
<totfact> 0.20350833E+03</totfact>
</mgrwt>
</event>
<event>
 4    0  0.1142061E-001  0.3834052E+03  0.7546771E-02  0.1049682E+00
          4   -1    0    0  502    0 -0.00000000000E+00  0.00000000000E+00  0.36140011365E+03  0.36140011365E+03  0.00000000000E+00 0. -1.
         21   -1    0    0  501  502  0.00000000000E+00 -0.00000000000E+00 -0.38506849357E+03  0.38506849357E+03  0.00000000000E+00 0. -1.
         25    1    1    2    0    0  0.32269694685E+03  0.16504905869E+03 -0.28647942302E+01  0.38341585560E+03  0.12500000000E+03 0.  0.
          4    1    1    2  501    0 -0.32269694685E+03 -0.16504905869E+03 -0.20803585684E+02  0.36305275162E+03  0.00000000000E+00 0. -1.
<mgrwt>
<rscale>  3 0.38340515E+03</rscale>
<asrwt>0</asrwt>
<pdfrwt beam="1">  1       21 0.59241306E-01 0.38340515E+03</pdfrwt>
<pdfrwt beam="2">  1        4 0.55600018E-01 0.38340515E+03</pdfrwt>
<totfact> 0.34156586E+02</totfact>
</mgrwt>
</event>
<event>
 4    0  0.1002184E-001  0.2576607E+03  0.7546771E-02  0.1108557E+00
         21   -1    0    0  501  502  0.00000000000E+00  0.00000000000E+00  0.57692029143E+03  0.57692029143E+03  0.00000000000E+00 0.  1.
          4   -1    0    0  502    0 -0.00000000000E+00 -0.00000000000E+00 -0.11798439876E+03  0.11798439876E+03  0.00000000000E+00 0. -1.
         25    1    1    2    0    0 -0.14209166790E+03  0.17485417696E+03  0.37390247391E+03  0.45408378663E+03  0.12500000000E+03 0.  0.
          4    1    1    2  501    0  0.14209166790E+03 -0.17485417696E+03  0.85033418755E+02  0.24082090356E+03  0.00000000000E+00 0. -1.
<mgrwt>
<rscale>  3 0.25766068E+03</rscale>
<asrwt>0</asrwt>
<pdfrwt beam="1">  1       21 0.88756966E-01 0.25766068E+03</pdfrwt>
<pdfrwt beam="2">  1        4 0.18151446E-01 0.25766068E+03</pdfrwt>
<totfact> 0.12229457E+03</totfact>
</mgrwt>
</event>
<event>
 4    0  0.1002184E-001  0.2851066E+03  0.7546771E-02  0.1092932E+00
         21   -1    0    0  501  502  0.00000000000E+00  0.00000000000E+00  0.13225645911E+04  0.13225645911E+04  0.00000000000E+00 0. -1.
          3   -1    0    0  502    0 -0.00000000000E+00 -0.00000000000E+00 -0.65736435980E+02  0.65736435980E+02  0.00000000000E+00 0. -1.
         25    1    1    2    0    0  0.18294658018E+03  0.17941938628E+03  0.38167209162E+03  0.47640251143E+03  0.12500000000E+03 0.  0.
          3    1    1    2  501    0 -0.18294658018E+03 -0.17941938628E+03  0.87515606353E+03  0.91189851568E+03  0.00000000000E+00 0. -1.
<mgrwt>
<rscale>  3 0.28510659E+03</rscale>
<asrwt>0</asrwt>
<pdfrwt beam="1">  1       21 0.20347146E+00 0.28510659E+03</pdfrwt>
<pdfrwt beam="2">  1        3 0.10113299E-01 0.28510659E+03</pdfrwt>
<totfact> 0.43974235E+02</totfact>
</mgrwt>
</event>
<event>
 4    0  0.1012910E-001  0.5692038E+03  0.7546771E-02  0.9971442E-01
         21   -1    0    0  501  502  0.00000000000E+00  0.00000000000E+00  0.11342747708E+04  0.11342747708E+04  0.00000000000E+00 0. -1.
          2   -1    0    0  502    0 -0.00000000000E+00 -0.00000000000E+00 -0.97640517538E+03  0.97640517538E+03  0.00000000000E+00 0. -1.
         25    1    1    2    0    0 -0.16445987146E+03 -0.53039691200E+03  0.97128780617E+03  0.11257854751E+04  0.12500000000E+03 0.  0.
          2    1    1    2  501    0  0.16445987146E+03  0.53039691200E+03 -0.81341821075E+03  0.98489447107E+03  0.00000000000E+00 0. -1.
<mgrwt>
<rscale>  3 0.56920377E+03</rscale>
<asrwt>0</asrwt>
<pdfrwt beam="1">  1       21 0.17450381E+00 0.56920377E+03</pdfrwt>
<pdfrwt beam="2">  1        2 0.15021618E+00 0.56920377E+03</pdfrwt>
<totfact> 0.55369736E+01</totfact>
</mgrwt>
</event>
<event>
 4    0  0.1096016E-001  0.2897328E+03  0.7546771E-02  0.1090489E+00
         -3   -1    0    0    0  501 -0.00000000000E+00  0.00000000000E+00  0.64449211051E+02  0.64449211051E+02  0.00000000000E+00 0.  1.
         21   -1    0    0  501  502  0.00000000000E+00 -0.00000000000E+00 -0.11855041643E+04  0.11855041643E+04  0.00000000000E+00 0.  1.
         25    1    1    2    0    0  0.24769493038E+03  0.83470624672E+02 -0.54006852607E+03  0.61287775010E+03  0.12500000000E+03 0.  0.
         -3    1    1    2    0  502 -0.24769493038E+03 -0.83470624672E+02 -0.58098642718E+03  0.63707562525E+03  0.00000000000E+00 0.  1.
<mgrwt>
<rscale>  3 0.28973285E+03</rscale>
<asrwt>0</asrwt>
<pdfrwt beam="1">  1       21 0.18238524E+00 0.28973285E+03</pdfrwt>
<pdfrwt beam="2">  1       -3 0.99152644E-02 0.28973285E+03</pdfrwt>
<totfact> 0.62762385E+02</totfact>
</mgrwt>
</event>
<event>
 4    0  0.1002184E-001  0.3382809E+03  0.7546771E-02  0.1067530E+00
          2   -1    0    0  502    0 -0.00000000000E+00  0.00000000000E+00  0.38450297119E+04  0.38450297119E+04  0.00000000000E+00 0.  1.
         21   -1    0    0  501  502  0.00000000000E+00 -0.00000000000E+00 -0.12981858401E+03  0.12981858401E+03  0.00000000000E+00 0. -1.
         25    1    1    2    0    0 -0.15753129861E+03  0.27201623938E+03  0.10964595290E+03  0.35560677653E+03  0.12500000000E+03 0.  0.
          2    1    1    2  501    0  0.15753129861E+03 -0.27201623938E+03  0.36055651750E+04  0.36192415194E+04  0.00000000000E+00 0.  1.
<mgrwt>
<rscale>  3 0.33828087E+03</rscale>
<asrwt>0</asrwt>
<pdfrwt beam="1">  1       21 0.19972093E-01 0.33828087E+03</pdfrwt>
<pdfrwt beam="2">  1        2 0.59154294E+00 0.33828087E+03</pdfrwt>
<totfact> 0.16094233E+02</totfact>
</mgrwt>
</event>
<event>
 4    0  0.1002184E-001  0.2933400E+03  0.7546771E-02  0.1088618E+00
         -4   -1    0    0    0  501 -0.00000000000E+00  0.00000000000E+00  0.34794697242E+03  0.34794697242E+03  0.00000000000E+00 0.  1.
         21   -1    0    0  501  502  0.00000000000E+00 -0.00000000000E+00 -0.42474546325E+03  0.42474546325E+03  0.00000000000E+00 0. -1.
         25    1    1    2    0    0  0.23459947371E+03  0.12404218708E+03 -0.30465225763E+03  0.42292005784E+03  0.12500000000E+03 0.  0.
         -4    1    1    2    0  502 -0.23459947371E+03 -0.12404218708E+03  0.22785376680E+03  0.34977237782E+03  0.00000000000E+00 0.  1.
<mgrwt>
<rscale>  3 0.29334004E+03</rscale>
<asrwt>0</asrwt>
<pdfrwt beam="1">  1       21 0.65345456E-01 0.29334004E+03</pdfrwt>
<pdfrwt beam="2">  1       -4 0.53530303E-01 0.29334004E+03</pdfrwt>
<totfact> 0.30128008E+02</totfact>
</mgrwt>
</event>
<event>
 4    0  0.1326684E-001  0.2611407E+03  0.7546771E-02  0.1106460E+00
          1   -1    0    0  502    0 -0.00000000000E+00  0.00000000000E+00  0.21300573542E+04  0.21300573542E+04  0.00000000000E+00 0.  1.
         21   -1    0    0  501  502  0.00000000000E+00 -0.00000000000E+00 -0.67279861480E+02  0.67279861480E+02  0.00000000000E+00 0.  1.
         25    1    1    2    0    0  0.22319376068E+03 -0.52478592505E+02  0.22321002562E+03  0.34353627612E+03  0.12500000000E+03 0.  0.
          1    1    1    2  501    0 -0.22319376068E+03  0.52478592505E+02  0.18395674671E+04  0.18538009396E+04  0.00000000000E+00 0.  1.
<mgrwt>
<rscale>  3 0.26114069E+03</rscale>
<asrwt>0</asrwt>
<pdfrwt beam="1">  1       21 0.10350750E-01 0.26114069E+03</pdfrwt>
<pdfrwt beam="2">  1        1 0.32770108E+00 0.26114069E+03</pdfrwt>
<totfact> 0.23508839E+03</totfact>
</mgrwt>
</event>
<event>
 4    0  0.1505541E-001  0.3226736E+03  0.7546771E-02  0.1074425E+00
          2   -1    0    0  502    0 -0.00000000000E+00  0.00000000000E+00  0.74444015853E+03  0.74444015853E+03  0.00000000000E+00 0. -1.
         21   -1    0    0  501  502  0.00000000000E+00 -0.00000000000E+00 -0.19371535263E+03  0.19371535263E+03  0.00000000000E+00 0. -1.
         25    1    1    2    0    0  0.27107346390E+03 -0.12252532601E+03  0.12169011106E+02  0.32290302441E+03  0.12500000000E+03 0.  0.
          2    1    1    2  501    0 -0.27107346390E+03  0.12252532601E+03  0.53855579479E+03  0.61525248674E+03  0.00000000000E+00 0. -1.
<mgrwt>
<rscale>  3 0.32267364E+03</rscale>
<asrwt>0</asrwt>
<pdfrwt beam="1">  1       21 0.29802362E-01 0.32267364E+03</pdfrwt>
<pdfrwt beam="2">  1        2 0.11452925E+00 0.32267364E+03</pdfrwt>
<totfact> 0.51046967E+03</totfact>
</mgrwt>
</event>
<event>
 4    0  0.1002184E-001  0.3056524E+03  0.7546771E-02  0.1082449E+00
          2   -1    0    0  502    0 -0.00000000000E+00  0.00000000000E+00  0.34135681493E+03  0.34135681493E+03  0.00000000000E+00 0. -1.
         21   -1    0    0  501  502  0.00000000000E+00 -0.00000000000E+00 -0.21596428367E+04  0.21596428367E+04  0.00000000000E+00 0. -1.
         25    1    1    2    0    0  0.10738707234E+03  0.25742260102E+03 -0.20896294406E+04  0.21118651893E+04  0.12500000000E+03 0.  0.
          2    1    1    2  501    0 -0.10738707234E+03 -0.25742260102E+03  0.27134341883E+03  0.38913446232E+03  0.00000000000E+00 0. -1.
<mgrwt>
<rscale>  3 0.30565238E+03</rscale>
<asrwt>0</asrwt>
<pdfrwt beam="1">  1       21 0.33225274E+00 0.30565238E+03</pdfrwt>
<pdfrwt beam="2">  1        2 0.52516433E-01 0.30565238E+03</pdfrwt>
<totfact> 0.23157356E+01</totfact>
</mgrwt>
</event>
<event>
 4    0  0.1750302E-001  0.2392330E+03  0.7546771E-02  0.1120305E+00
         21   -1    0    0  501  502  0.00000000000E+00  0.00000000000E+00  0.51581967915E+02  0.51581967915E+02  0.00000000000E+00 0.  1.
          2   -1    0    0  502    0 -0.00000000000E+00 -0.00000000000E+00 -0.96948836886E+03  0.96948836886E+03  0.00000000000E+00 0.  1.
         25    1    1    2    0    0 -0.11422749718E+03  0.16899557133E+03 -0.42656782746E+03  0.48907313938E+03  0.12500000000E+03 0.  0.
          2    1    1    2  501    0  0.11422749718E+03 -0.16899557133E+03 -0.49133857349E+03  0.53199719739E+03  0.00000000000E+00 0.  1.
<mgrwt>
<rscale>  3 0.23923299E+03</rscale>
<asrwt>0</asrwt>
<pdfrwt beam="1">  1       21 0.79356876E-02 0.23923299E+03</pdfrwt>
<pdfrwt beam="2">  1        2 0.14915205E+00 0.23923299E+03</pdfrwt>
<totfact> 0.42153907E+04</totfact>
</mgrwt>
</event>
<event>
 4    0  0.1682192E-001  0.4053401E+03  0.7546771E-02  0.1041946E+00
         -1   -1    0    0    0  501 -0.00000000000E+00  0.00000000000E+00  0.45903545176E+03  0.45903545176E+03  0.00000000000E+00 0.  1.
         21   -1    0    0  501  502  0.00000000000E+00 -0.00000000000E+00 -0.37111692833E+03  0.37111692833E+03  0.00000000000E+00 0.  1.
         25    1    1    2    0    0 -0.37405847410E+03 -0.93572770987E+02 -0.73841907495E+02  0.41201120473E+03  0.12500000000E+03 0.  0.
         -1    1    1    2    0  502  0.37405847410E+03  0.93572770987E+02  0.16176043092E+03  0.41814117536E+03  0.00000000000E+00 0.  1.
<mgrwt>
<rscale>  3 0.40534011E+03</rscale>
<asrwt>0</asrwt>
<pdfrwt beam="1">  1       21 0.57094912E-01 0.40534011E+03</pdfrwt>
<pdfrwt beam="2">  1       -1 0.70620839E-01 0.40534011E+03</pdfrwt>
<totfact> 0.52630491E+02</totfact>
</mgrwt>
</event>
<event>
 4    0  0.1297486E-001  0.2589765E+03  0.7546771E-02  0.1107760E+00
          2   -1    0    0  502    0 -0.00000000000E+00  0.00000000000E+00  0.20644446168E+04  0.20644446168E+04  0.00000000000E+00 0.  1.
         21   -1    0    0  501  502  0.00000000000E+00 -0.00000000000E+00 -0.39606753073E+03  0.39606753073E+03  0.00000000000E+00 0.  1.
         25    1    1    2    0    0  0.17613375457E+03 -0.14290111344E+03 -0.34667982847E+03  0.43273055264E+03  0.12500000000E+03 0.  0.
          2    1    1    2  501    0 -0.17613375457E+03  0.14290111344E+03  0.20150569145E+04  0.20277815949E+04  0.00000000000E+00 0.  1.
<mgrwt>
<rscale>  3 0.25897650E+03</rscale>
<asrwt>0</asrwt>
<pdfrwt beam="1">  1       21 0.60933467E-01 0.25897650E+03</pdfrwt>
<pdfrwt beam="2">  1        2 0.31760686E+00 0.25897650E+03</pdfrwt>
<totfact> 0.21217097E+02</totfact>
</mgrwt>
</event>
<event>
 4    0  0.1724017E-001  0.2642708E+03  0.7546771E-02  0.1104604E+00
         -1   -1    0    0    0  501 -0.00000000000E+00  0.00000000000E+00  0.12598083432E+04  0.12598083432E+04  0.00000000000E+00 0.  1.
         21   -1    0    0  501  502  0.00000000000E+00 -0.00000000000E+00 -0.10931003529E+03  0.10931003529E+03  0.00000000000E+00 0.  1.
         25    1    1    2    0    0  0.13721560333E+03  0.18811142990E+03  0.83704169092E+02  0.27721006436E+03  0.12500000000E+03 0.  0.
         -1    1    1    2    0  502 -0.13721560333E+03 -0.18811142990E+03  0.10667941388E+04  0.10919083141E+04  0.00000000000E+00 0.  1.
<mgrwt>
<rscale>  3 0.26427075E+03</rscale>
<asrwt>0</asrwt>
<pdfrwt beam="1">  1       21 0.16816929E-01 0.26427075E+03</pdfrwt>
<pdfrwt beam="2">  1       -1 0.19381666E+00 0.26427075E+03</pdfrwt>
<totfact> 0.54084610E+02</totfact>
</mgrwt>
</event>
<event>
 4    0  0.1377962E-001  0.2519861E+03  0.7546771E-02  0.1112056E+00
         21   -1    0    0  501  502  0.00000000000E+00  0.00000000000E+00  0.11889263355E+03  0.11889263355E+03  0.00000000000E+00 0. -1.
          3   -1    0    0  502    0 -0.00000000000E+00 -0.00000000000E+00 -0.47423469897E+03  0.47423469897E+03  0.00000000000E+00 0. -1.
         25    1    1    2    0    0 -0.12703126099E+02 -0.21842763207E+03 -0.15109922756E+03  0.29381622902E+03  0.12500000000E+03 0.  0.
          3    1    1    2  501    0  0.12703126099E+02  0.21842763207E+03 -0.20424283786E+03  0.29931110350E+03  0.00000000000E+00 0. -1.
<mgrwt>
<rscale>  3 0.25198611E+03</rscale>
<asrwt>0</asrwt>
<pdfrwt beam="1">  1       21 0.18291174E-01 0.25198611E+03</pdfrwt>
<pdfrwt beam="2">  1        3 0.72959185E-01 0.25198611E+03</pdfrwt>
<totfact> 0.24541683E+03</totfact>
</mgrwt>
</event>
<event>
 4    0  0.1002184E-001  0.2900642E+03  0.7546771E-02  0.1090316E+00
          2   -1    0    0  502    0 -0.00000000000E+00  0.00000000000E+00  0.25651110494E+04  0.25651110494E+04  0.00000000000E+00 0.  1.
         21   -1    0    0  501  502  0.00000000000E+00 -0.00000000000E+00 -0.29701020581E+02  0.29701020581E+02  0.00000000000E+00 0. -1.
         25    1    1    2    0    0 -0.48260500841E+02  0.25726086432E+03  0.12957008620E+04  0.13277717997E+04  0.12500000000E+03 0.  0.
          2    1    1    2  501    0  0.48260500841E+02 -0.25726086432E+03  0.12397091669E+04  0.12670402703E+04  0.00000000000E+00 0.  1.
<mgrwt>
<rscale>  3 0.29006418E+03</rscale>
<asrwt>0</asrwt>
<pdfrwt beam="1">  1       21 0.45693898E-02 0.29006418E+03</pdfrwt>
<pdfrwt beam="2">  1        2 0.39463229E+00 0.29006418E+03</pdfrwt>
<totfact> 0.14607076E+04</totfact>
</mgrwt>
</event>
<event>
 4    0  0.1066289E-001  0.2711729E+03  0.7546771E-02  0.1100610E+00
         21   -1    0    0  501  502  0.00000000000E+00  0.00000000000E+00  0.63575045002E+03  0.63575045002E+03  0.00000000000E+00 0. -1.
          2   -1    0    0  502    0 -0.00000000000E+00 -0.00000000000E+00 -0.10821673028E+03  0.10821673028E+03  0.00000000000E+00 0. -1.
         25    1    1    2    0    0 -0.92296198721E+02  0.22224125968E+03  0.19729465879E+03  0.33535048560E+03  0.12500000000E+03 0.  0.
          2    1    1    2  501    0  0.92296198721E+02 -0.22224125968E+03  0.33023906096E+03  0.40861669470E+03  0.00000000000E+00 0. -1.
<mgrwt>
<rscale>  3 0.27117294E+03</rscale>
<asrwt>0</asrwt>
<pdfrwt beam="1">  1       21 0.97807759E-01 0.27117294E+03</pdfrwt>
<pdfrwt beam="2">  1        2 0.16648728E-01 0.27117294E+03</pdfrwt>
<totfact> 0.35451435E+03</totfact>
</mgrwt>
</event>
<event>
 4    0  0.1002184E-001  0.2954621E+03  0.7546771E-02  0.1087531E+00
          2   -1    0    0  502    0 -0.00000000000E+00  0.00000000000E+00  0.14909201394E+03  0.14909201394E+03  0.00000000000E+00 0.  1.
         21   -1    0    0  501  502  0.00000000000E+00 -0.00000000000E+00 -0.54066978158E+03  0.54066978158E+03  0.00000000000E+00 0. -1.
         25    1    1    2    0    0  0.63684840708E+02 -0.26003285710E+03 -0.24930063464E+03  0.38658589232E+03  0.12500000000E+03 0.  0.
          2    1    1    2  501    0 -0.63684840708E+02  0.26003285710E+03 -0.14227713300E+03  0.30317590320E+03  0.00000000000E+00 0.  1.
<mgrwt>
<rscale>  3 0.29546209E+03</rscale>
<asrwt>0</asrwt>
<pdfrwt beam="1">  1       21 0.83179967E-01 0.29546209E+03</pdfrwt>
<pdfrwt beam="2">  1        2 0.22937233E-01 0.29546209E+03</pdfrwt>
<totfact> 0.35540469E+03</totfact>
</mgrwt>
</event>
<event>
 4    0  0.1002184E-001  0.3588036E+03  0.7546771E-02  0.1059059E+00
          2   -1    0    0  502    0 -0.00000000000E+00  0.00000000000E+00  0.92838717879E+03  0.92838717879E+03  0.00000000000E+00 0. -1.
         21   -1    0    0  501  502  0.00000000000E+00 -0.00000000000E+00 -0.17043499876E+03  0.17043499876E+03  0.00000000000E+00 0.  1.
         25    1    1    2    0    0 -0.17749094370E+03 -0.28567809300E+03  0.12122751832E+03  0.37872961215E+03  0.12500000000E+03 0.  0.
          2    1    1    2  501    0  0.17749094370E+03  0.28567809300E+03  0.63672466172E+03  0.72009256541E+03  0.00000000000E+00 0. -1.
<mgrwt>
<rscale>  3 0.35880358E+03</rscale>
<asrwt>0</asrwt>
<pdfrwt beam="1">  1       21 0.26220770E-01 0.35880358E+03</pdfrwt>
<pdfrwt beam="2">  1        2 0.14282879E+00 0.35880358E+03</pdfrwt>
<totfact> 0.48710665E+03</totfact>
</mgrwt>
</event>
<event>
 4    0  0.1383363E-001  0.2425845E+03  0.7546771E-02  0.1118083E+00
          1   -1    0    0  502    0 -0.00000000000E+00  0.00000000000E+00  0.14487905410E+04  0.14487905410E+04  0.00000000000E+00 0. -1.
         21   -1    0    0  501  502  0.00000000000E+00 -0.00000000000E+00 -0.11840174509E+03  0.11840174509E+03  0.00000000000E+00 0.  1.
         25    1    1    2    0    0  0.13302466666E+03 -0.15977067157E+03  0.23331280693E+02  0.24370387377E+03  0.12500000000E+03 0.  0.
          1    1    1    2  501    0 -0.13302466666E+03  0.15977067157E+03  0.13070575152E+04  0.13234884123E+04  0.00000000000E+00 0. -1.
<mgrwt>
<rscale>  3 0.24258448E+03</rscale>
<asrwt>0</asrwt>
<pdfrwt beam="1">  1       21 0.18215654E-01 0.24258448E+03</pdfrwt>
<pdfrwt beam="2">  1        1 0.22289084E+00 0.24258448E+03</pdfrwt>
<totfact> 0.23567874E+03</totfact>
</mgrwt>
</event>
<event>
 4    0  0.1395490E-001  0.2958280E+03  0.7546771E-02  0.1087345E+00
          1   -1    0    0  502    0 -0.00000000000E+00  0.00000000000E+00  0.97853438799E+03  0.97853438799E+03  0.00000000000E+00 0.  1.
         21   -1    0    0  501  502  0.00000000000E+00 -0.00000000000E+00 -0.16767551730E+03  0.16767551730E+03  0.00000000000E+00 0. -1.
         25    1    1    2    0    0  0.12089381769E+03  0.23931967910E+03  0.38787825830E+01  0.29585345852E+03  0.12500000000E+03 0.  0.
          1    1    1    2  501    0 -0.12089381769E+03 -0.23931967910E+03  0.80698008811E+03  0.85035644678E+03  0.00000000000E+00 0.  1.
<mgrwt>
<rscale>  3 0.29582803E+03</rscale>
<asrwt>0</asrwt>
<pdfrwt beam="1">  1       21 0.25796234E-01 0.29582803E+03</pdfrwt>
<pdfrwt beam="2">  1        1 0.15054375E+00 0.29582803E+03</pdfrwt>
<totfact> 0.25586904E+03</totfact>
</mgrwt>
</event>
<event>
 4    0  0.1134367E-001  0.3410914E+03  0.7546771E-02  0.1066332E+00
         21   -1    0    0  501  502  0.00000000000E+00  0.00000000000E+00  0.58653231985E+03  0.58653231985E+03  0.00000000000E+00 0.  1.
          3   -1    0    0  502    0 -0.00000000000E+00 -0.00000000000E+00 -0.22995611145E+03  0.22995611145E+03  0.00000000000E+00 0.  1.
         25    1    1    2    0    0 -0.29081101616E+03 -0.12707198604E+03  0.36426817351E+03  0.49903370526E+03  0.12500000000E+03 0.  0.
          3    1    1    2  501    0  0.29081101616E+03  0.12707198604E+03 -0.76919651068E+01  0.31745472604E+03  0.00000000000E+00 0.  1.
<mgrwt>
<rscale>  3 0.34109139E+03</rscale>
<asrwt>0</asrwt>
<pdfrwt beam="1">  1       21 0.90235741E-01 0.34109139E+03</pdfrwt>
<pdfrwt beam="2">  1        3 0.35377864E-01 0.34109139E+03</pdfrwt>
<totfact> 0.39302600E+02</totfact>
</mgrwt>
</event>
<event>
 4    0  0.1002184E-001  0.2428439E+03  0.7546771E-02  0.1117913E+00
          3   -1    0    0  502    0 -0.00000000000E+00  0.00000000000E+00  0.44248431865E+03  0.44248431865E+03  0.00000000000E+00 0. -1.
         21   -1    0    0  501  502  0.00000000000E+00 -0.00000000000E+00 -0.17092752386E+03  0.17092752386E+03  0.00000000000E+00 0.  1.
         25    1    1    2    0    0 -0.85091216581E+02 -0.19002011924E+03 -0.32389392565E+02  0.24499435423E+03  0.12500000000E+03 0.  0.
          3    1    1    2  501    0  0.85091216581E+02  0.19002011924E+03  0.30394618735E+03  0.36841748827E+03  0.00000000000E+00 0. -1.
<mgrwt>
<rscale>  3 0.24284390E+03</rscale>
<asrwt>0</asrwt>
<pdfrwt beam="1">  1       21 0.26296542E-01 0.24284390E+03</pdfrwt>
<pdfrwt beam="2">  1        3 0.68074510E-01 0.24284390E+03</pdfrwt>
<totfact> 0.14311265E+03</totfact>
</mgrwt>
</event>
<event>
 4    0  0.1002184E-001  0.3024823E+03  0.7546771E-02  0.1084006E+00
          1   -1    0    0  502    0 -0.00000000000E+00  0.00000000000E+00  0.15931785427E+04  0.15931785427E+04  0.00000000000E+00 0. -1.
         21   -1    0    0  501  502  0.00000000000E+00 -0.00000000000E+00 -0.58963423282E+02  0.58963423282E+02  0.00000000000E+00 0.  1.
         25    1    1    2    0    0 -0.25261117884E+03  0.10980962265E+03  0.52390055346E+03  0.60495235417E+03  0.12500000000E+03 0.  0.
          1    1    1    2  501    0  0.25261117884E+03 -0.10980962265E+03  0.10103145660E+04  0.10471896118E+04  0.00000000000E+00 0. -1.
<mgrwt>
<rscale>  3 0.30248233E+03</rscale>
<asrwt>0</asrwt>
<pdfrwt beam="1">  1       21 0.90712971E-02 0.30248233E+03</pdfrwt>
<pdfrwt beam="2">  1        1 0.24510436E+00 0.30248233E+03</pdfrwt>
<totfact> 0.65640884E+03</totfact>
</mgrwt>
</event>
<event>
 4    0  0.1002184E-001  0.2756451E+03  0.7546771E-02  0.1098092E+00
          2   -1    0    0  502    0 -0.00000000000E+00  0.00000000000E+00  0.74797544765E+03  0.74797544765E+03  0.00000000000E+00 0.  1.
         21   -1    0    0  501  502  0.00000000000E+00 -0.00000000000E+00 -0.90965031324E+02  0.90965031324E+02  0.00000000000E+00 0. -1.
         25    1    1    2    0    0 -0.20746751883E+03  0.13157673926E+03  0.33159537159E+03  0.43120262076E+03  0.12500000000E+03 0.  0.
          2    1    1    2  501    0  0.20746751883E+03 -0.13157673926E+03  0.32541504474E+03  0.40773785822E+03  0.00000000000E+00 0.  1.
<mgrwt>
<rscale>  3 0.27564508E+03</rscale>
<asrwt>0</asrwt>
<pdfrwt beam="1">  1       21 0.13994621E-01 0.27564508E+03</pdfrwt>
<pdfrwt beam="2">  1        2 0.11507314E+00 0.27564508E+03</pdfrwt>
<totfact> 0.21411036E+04</totfact>
</mgrwt>
</event>
<event>
 4    0  0.1544990E-001  0.2733532E+03  0.7546771E-02  0.1099376E+00
         21   -1    0    0  501  502  0.00000000000E+00  0.00000000000E+00  0.54840481920E+02  0.54840481920E+02  0.00000000000E+00 0.  1.
          1   -1    0    0  502    0 -0.00000000000E+00 -0.00000000000E+00 -0.14348358436E+04  0.14348358436E+04  0.00000000000E+00 0.  1.
         25    1    1    2    0    0  0.16059335635E+03 -0.18250135825E+03 -0.43372506148E+03  0.51267865259E+03  0.12500000000E+03 0.  0.
          1    1    1    2  501    0 -0.16059335635E+03  0.18250135825E+03 -0.94627030016E+03  0.97699767289E+03  0.00000000000E+00 0.  1.
<mgrwt>
<rscale>  3 0.27335320E+03</rscale>
<asrwt>0</asrwt>
<pdfrwt beam="1">  1       21 0.84369971E-02 0.27335320E+03</pdfrwt>
<pdfrwt beam="2">  1        1 0.22074398E+00 0.27335320E+03</pdfrwt>
<totfact> 0.95791567E+03</totfact>
</mgrwt>
</event>
<event>
 4    0  0.1173585E-001  0.2419133E+03  0.7546771E-02  0.1118525E+00
         21   -1    0    0  501  502  0.00000000000E+00  0.00000000000E+00  0.78798845522E+02  0.78798845522E+02  0.00000000000E+00 0.  1.
          2   -1    0    0  502    0 -0.00000000000E+00 -0.00000000000E+00 -0.25428369052E+04  0.25428369052E+04  0.00000000000E+00 0.  1.
         25    1    1    2    0    0 -0.20576121222E+03  0.23650499737E+02 -0.12287779556E+03  0.27133185444E+03  0.12500000000E+03 0.  0.
          2    1    1    2  501    0  0.20576121222E+03 -0.23650499737E+02 -0.23411602641E+04  0.23503038963E+04  0.00000000000E+00 0.  1.
<mgrwt>
<rscale>  3 0.24191325E+03</rscale>
<asrwt>0</asrwt>
<pdfrwt beam="1">  1       21 0.12122900E-01 0.24191325E+03</pdfrwt>
<pdfrwt beam="2">  1        2 0.39120566E+00 0.24191325E+03</pdfrwt>
<totfact> 0.27843167E+03</totfact>
</mgrwt>
</event>
<event>
 4    0  0.1263950E-001  0.2361551E+03  0.7546771E-02  0.1122381E+00
          2   -1    0    0  502    0 -0.00000000000E+00  0.00000000000E+00  0.14361896472E+04  0.14361896472E+04  0.00000000000E+00 0. -1.
         21   -1    0    0  501  502  0.00000000000E+00 -0.00000000000E+00 -0.66518723056E+02  0.66518723056E+02  0.00000000000E+00 0. -1.
         25    1    1    2    0    0  0.17490299140E+03 -0.97740326088E+02  0.18171820517E+03  0.29797774050E+03  0.12500000000E+03 0.  0.
          2    1    1    2  501    0 -0.17490299140E+03  0.97740326088E+02  0.11879527190E+04  0.12047306298E+04  0.00000000000E+00 0. -1.
<mgrwt>
<rscale>  3 0.23615509E+03</rscale>
<asrwt>0</asrwt>
<pdfrwt beam="1">  1       21 0.10233651E-01 0.23615509E+03</pdfrwt>
<pdfrwt beam="2">  1        2 0.22095223E+00 0.23615509E+03</pdfrwt>
<totfact> 0.14588930E+04</totfact>
</mgrwt>
</event>
<event>
 4    0  0.1002184E-001  0.3996438E+03  0.7546771E-02  0.1043903E+00
         21   -1    0    0  501  502  0.00000000000E+00  0.00000000000E+00  0.14750774969E+04  0.14750774969E+04  0.00000000000E+00 0. -1.
          3   -1    0    0  502    0 -0.00000000000E+00 -0.00000000000E+00 -0.17536898336E+03  0.17536898336E+03  0.00000000000E+00 0. -1.
         25    1    1    2    0    0  0.32753903543E+03 -0.19185498958E+03  0.11900055849E+04  0.12553200584E+04  0.12500000000E+03 0.  0.
          3    1    1    2  501    0 -0.32753903543E+03  0.19185498958E+03  0.10970292863E+03  0.39512642193E+03  0.00000000000E+00 0. -1.
<mgrwt>
<rscale>  3 0.39964379E+03</rscale>
<asrwt>0</asrwt>
<pdfrwt beam="1">  1       21 0.22693499E+00 0.39964379E+03</pdfrwt>
<pdfrwt beam="2">  1        3 0.26979845E-01 0.39964379E+03</pdfrwt>
<totfact> 0.53204925E+01</totfact>
</mgrwt>
</event>
<event>
 4    0  0.1002184E-001  0.3236860E+03  0.7546771E-02  0.1073965E+00
          2   -1    0    0  502    0 -0.00000000000E+00  0.00000000000E+00  0.35477773648E+04  0.35477773648E+04  0.00000000000E+00 0.  1.
         21   -1    0    0  501  502  0.00000000000E+00 -0.00000000000E+00 -0.12147728430E+03  0.12147728430E+03  0.00000000000E+00 0. -1.
         25    1    1    2    0    0 -0.11297514802E+03 -0.27637700623E+03  0.11347266915E+03  0.34299953394E+03  0.12500000000E+03 0.  0.
          2    1    1    2  501    0  0.11297514802E+03  0.27637700623E+03  0.33128274114E+04  0.33262551152E+04  0.00000000000E+00 0.  1.
<mgrwt>
<rscale>  3 0.32368601E+03</rscale>
<asrwt>0</asrwt>
<pdfrwt beam="1">  1       21 0.18688816E-01 0.32368601E+03</pdfrwt>
<pdfrwt beam="2">  1        2 0.54581182E+00 0.32368601E+03</pdfrwt>
<totfact> 0.29772050E+02</totfact>
</mgrwt>
</event>
<event>
 4    0  0.1002184E-001  0.4419696E+03  0.7546771E-02  0.1030144E+00
         21   -1    0    0  501  502  0.00000000000E+00  0.00000000000E+00  0.48076167593E+03  0.48076167593E+03  0.00000000000E+00 0. -1.
          1   -1    0    0  502    0 -0.00000000000E+00 -0.00000000000E+00 -0.54073557343E+03  0.54073557343E+03  0.00000000000E+00 0.  1.
         25    1    1    2    0    0  0.38696121817E+03  0.17312758997E+03  0.23928410499E+03  0.50258733537E+03  0.12500000000E+03 0.  0.
          1    1    1    2  501    0 -0.38696121817E+03 -0.17312758997E+03 -0.29925800250E+03  0.51890991399E+03  0.00000000000E+00 0.  1.
<mgrwt>
<rscale>  3 0.44196962E+03</rscale>
<asrwt>0</asrwt>
<pdfrwt beam="1">  1       21 0.73963335E-01 0.44196962E+03</pdfrwt>
<pdfrwt beam="2">  1        1 0.83190088E-01 0.44196962E+03</pdfrwt>
<totfact> 0.67184953E+02</totfact>
</mgrwt>
</event>
<event>
 4    0  0.1002184E-001  0.5063162E+03  0.7546771E-02  0.1012143E+00
         21   -1    0    0  501  502  0.00000000000E+00  0.00000000000E+00  0.74652775129E+02  0.74652775129E+02  0.00000000000E+00 0.  1.
         -3   -1    0    0    0  501 -0.00000000000E+00 -0.00000000000E+00 -0.33288061369E+04  0.33288061369E+04  0.00000000000E+00 0.  1.
         25    1    1    2    0    0 -0.49061213262E+03  0.55560657524E+01 -0.16365020541E+04  0.17130368086E+04  0.12500000000E+03 0.  0.
         -3    1    1    2    0  502  0.49061213262E+03 -0.55560657524E+01 -0.16176513076E+04  0.16904221034E+04  0.00000000000E+00 0.  1.
<mgrwt>
<rscale>  3 0.50631624E+03</rscale>
<asrwt>0</asrwt>
<pdfrwt beam="1">  1       21 0.11485043E-01 0.50631624E+03</pdfrwt>
<pdfrwt beam="2">  1       -3 0.51212398E+00 0.50631624E+03</pdfrwt>
<totfact> 0.93406098E+00</totfact>
</mgrwt>
</event>
<event>
 4    0  0.1002184E-001  0.2439471E+03  0.7546771E-02  0.1117191E+00
         21   -1    0    0  501  502  0.00000000000E+00  0.00000000000E+00  0.68745070551E+03  0.68745070551E+03  0.00000000000E+00 0.  1.
         -2   -1    0    0    0  501 -0.00000000000E+00 -0.00000000000E+00 -0.14894688236E+03  0.14894688236E+03  0.00000000000E+00 0. -1.
         25    1    1    2    0    0 -0.15557824674E+03 -0.14028746942E+03  0.57421708314E+03  0.62388734841E+03  0.12500000000E+03 0.  0.
         -2    1    1    2    0  502  0.15557824674E+03  0.14028746942E+03 -0.35713259990E+02  0.21251023946E+03  0.00000000000E+00 0. -1.
<mgrwt>
<rscale>  3 0.24394705E+03</rscale>
<asrwt>0</asrwt>
<pdfrwt beam="1">  1       21 0.10576165E+00 0.24394705E+03</pdfrwt>
<pdfrwt beam="2">  1       -2 0.22914905E-01 0.24394705E+03</pdfrwt>
<totfact> 0.93094172E+02</totfact>
</mgrwt>
</event>
<event>
 4    0  0.1274715E-001  0.2518794E+03  0.7546771E-02  0.1112123E+00
          2   -1    0    0  502    0 -0.00000000000E+00  0.00000000000E+00  0.25274093552E+04  0.25274093552E+04  0.00000000000E+00 0. -1.
         21   -1    0    0  501  502  0.00000000000E+00 -0.00000000000E+00 -0.29676261967E+02  0.29676261967E+02  0.00000000000E+00 0. -1.
         25    1    1    2    0    0 -0.16307923565E+03  0.14568253534E+03  0.66071244066E+03  0.70709558579E+03  0.12500000000E+03 0.  0.
          2    1    1    2  501    0  0.16307923565E+03 -0.14568253534E+03  0.18370206525E+04  0.18499900313E+04  0.00000000000E+00 0. -1.
<mgrwt>
<rscale>  3 0.25187941E+03</rscale>
<asrwt>0</asrwt>
<pdfrwt beam="1">  1       21 0.45655808E-02 0.25187941E+03</pdfrwt>
<pdfrwt beam="2">  1        2 0.38883204E+00 0.25187941E+03</pdfrwt>
<totfact> 0.15536476E+04</totfact>
</mgrwt>
</event>
<event>
 4    0  0.1477611E-001  0.2477448E+03  0.7546771E-02  0.1114738E+00
         21   -1    0    0  501  502  0.00000000000E+00  0.00000000000E+00  0.47379012804E+03  0.47379012804E+03  0.00000000000E+00 0.  1.
          2   -1    0    0  502    0 -0.00000000000E+00 -0.00000000000E+00 -0.12622823070E+04  0.12622823070E+04  0.00000000000E+00 0.  1.
         25    1    1    2    0    0 -0.12150816127E+03  0.17603482437E+03  0.43144991598E+03  0.49752037410E+03  0.12500000000E+03 0.  0.
          2    1    1    2  501    0  0.12150816127E+03 -0.17603482437E+03 -0.12199420950E+04  0.12385520610E+04  0.00000000000E+00 0.  1.
<mgrwt>
<rscale>  3 0.24774481E+03</rscale>
<asrwt>0</asrwt>
<pdfrwt beam="1">  1       21 0.72890791E-01 0.24774481E+03</pdfrwt>
<pdfrwt beam="2">  1        2 0.19419727E+00 0.24774481E+03</pdfrwt>
<totfact> 0.38485987E+02</totfact>
</mgrwt>
</event>
<event>
 4    0  0.1521224E-001  0.2707087E+03  0.7546771E-02  0.1100875E+00
          1   -1    0    0  502    0 -0.00000000000E+00  0.00000000000E+00  0.19119092508E+04  0.19119092508E+04  0.00000000000E+00 0. -1.
         21   -1    0    0  501  502  0.00000000000E+00 -0.00000000000E+00 -0.16631140922E+03  0.16631140922E+03  0.00000000000E+00 0. -1.
         25    1    1    2    0    0 -0.18067982317E+03  0.15815498838E+03 -0.42541475156E+02  0.27403097628E+03  0.12500000000E+03 0.  0.
          1    1    1    2  501    0  0.18067982317E+03 -0.15815498838E+03  0.17881393167E+04  0.18041896837E+04  0.00000000000E+00 0. -1.
<mgrwt>
<rscale>  3 0.27070870E+03</rscale>
<asrwt>0</asrwt>
<pdfrwt beam="1">  1       21 0.25586372E-01 0.27070870E+03</pdfrwt>
<pdfrwt beam="2">  1        1 0.29413987E+00 0.27070870E+03</pdfrwt>
<totfact> 0.60804297E+02</totfact>
</mgrwt>
</event>
<event>
 4    0  0.1316681E-001  0.4394345E+03  0.7546771E-02  0.1030920E+00
          1   -1    0    0  502    0 -0.00000000000E+00  0.00000000000E+00  0.72379595755E+03  0.72379595755E+03  0.00000000000E+00 0.  1.
         21   -1    0    0  501  502  0.00000000000E+00 -0.00000000000E+00 -0.66502525654E+03  0.66502525654E+03  0.00000000000E+00 0.  1.
         25    1    1    2    0    0 -0.29449869657E+03 -0.30124435379E+03 -0.51500018262E+03  0.67699913669E+03  0.12500000000E+03 0.  0.
          1    1    1    2  501    0  0.29449869657E+03  0.30124435379E+03  0.57377088363E+03  0.71182207741E+03  0.00000000000E+00 0.  1.
<mgrwt>
<rscale>  3 0.43943446E+03</rscale>
<asrwt>0</asrwt>
<pdfrwt beam="1">  1       21 0.10231158E+00 0.43943446E+03</pdfrwt>
<pdfrwt beam="2">  1        1 0.11135322E+00 0.43943446E+03</pdfrwt>
<totfact> 0.20613375E+02</totfact>
</mgrwt>
</event>
<event>
 4    0  0.1525143E-001  0.2555320E+03  0.7546771E-02  0.1109858E+00
          1   -1    0    0  502    0 -0.00000000000E+00  0.00000000000E+00  0.64537434825E+03  0.64537434825E+03  0.00000000000E+00 0.  1.
         21   -1    0    0  501  502  0.00000000000E+00 -0.00000000000E+00 -0.90505810311E+02  0.90505810311E+02  0.00000000000E+00 0.  1.
         25    1    1    2    0    0 -0.67305588565E+02 -0.21246543451E+03  0.24353071827E+03  0.35299265411E+03  0.12500000000E+03 0.  0.
          1    1    1    2  501    0  0.67305588565E+02  0.21246543451E+03  0.31133781967E+03  0.38288750445E+03  0.00000000000E+00 0.  1.
<mgrwt>
<rscale>  3 0.25553200E+03</rscale>
<asrwt>0</asrwt>
<pdfrwt beam="1">  1       21 0.13923971E-01 0.25553200E+03</pdfrwt>
<pdfrwt beam="2">  1        1 0.99288358E-01 0.25553200E+03</pdfrwt>
<totfact> 0.15652124E+04</totfact>
</mgrwt>
</event>
<event>
 4    0  0.1681587E-001  0.2696470E+03  0.7546771E-02  0.1101482E+00
         -3   -1    0    0    0  501 -0.00000000000E+00  0.00000000000E+00  0.31329931407E+03  0.31329931407E+03  0.00000000000E+00 0. -1.
         21   -1    0    0  501  502  0.00000000000E+00 -0.00000000000E+00 -0.23553946861E+03  0.23553946861E+03  0.00000000000E+00 0. -1.
         25    1    1    2    0    0 -0.23743888246E+03  0.26594641860E+02 -0.55449885788E+02  0.27528928006E+03  0.12500000000E+03 0.  0.
         -3    1    1    2    0  502  0.23743888246E+03 -0.26594641860E+02  0.13320973125E+03  0.27354950262E+03  0.00000000000E+00 0. -1.
<mgrwt>
<rscale>  3 0.26964699E+03</rscale>
<asrwt>0</asrwt>
<pdfrwt beam="1">  1       21 0.36236841E-01 0.26964699E+03</pdfrwt>
<pdfrwt beam="2">  1       -3 0.48199895E-01 0.26964699E+03</pdfrwt>
<totfact> 0.15513490E+03</totfact>
</mgrwt>
</event>
<event>
 4    0  0.1002184E-001  0.3369427E+03  0.7546771E-02  0.1068106E+00
         21   -1    0    0  501  502  0.00000000000E+00  0.00000000000E+00  0.18502945376E+04  0.18502945376E+04  0.00000000000E+00 0. -1.
          2   -1    0    0  502    0 -0.00000000000E+00 -0.00000000000E+00 -0.24540399919E+03  0.24540399919E+03  0.00000000000E+00 0. -1.
         25    1    1    2    0    0 -0.24844682146E+03 -0.19020922350E+03  0.17271896994E+04  0.17597484563E+04  0.12500000000E+03 0.  0.
          2    1    1    2  501    0  0.24844682146E+03  0.19020922350E+03 -0.12229916099E+03  0.33595008048E+03  0.00000000000E+00 0. -1.
<mgrwt>
<rscale>  3 0.33694268E+03</rscale>
<asrwt>0</asrwt>
<pdfrwt beam="1">  1       21 0.28466069E+00 0.33694268E+03</pdfrwt>
<pdfrwt beam="2">  1        2 0.37754463E-01 0.33694268E+03</pdfrwt>
<totfact> 0.62052894E+01</totfact>
</mgrwt>
</event>
<event>
 4    0  0.1263507E-001  0.2781106E+03  0.7546771E-02  0.1096725E+00
         21   -1    0    0  501  502  0.00000000000E+00  0.00000000000E+00  0.90974196290E+03  0.90974196290E+03  0.00000000000E+00 0.  1.
          2   -1    0    0  502    0 -0.00000000000E+00 -0.00000000000E+00 -0.33111678788E+03  0.33111678788E+03  0.00000000000E+00 0. -1.
         25    1    1    2    0    0  0.21764731520E+03 -0.11979219255E+03  0.83725493427E+03  0.88223656020E+03  0.12500000000E+03 0.  0.
          2    1    1    2  501    0 -0.21764731520E+03  0.11979219255E+03 -0.25862975924E+03  0.35862219058E+03  0.00000000000E+00 0. -1.
<mgrwt>
<rscale>  3 0.27811063E+03</rscale>
<asrwt>0</asrwt>
<pdfrwt beam="1">  1       21 0.13996030E+00 0.27811063E+03</pdfrwt>
<pdfrwt beam="2">  1        2 0.50941045E-01 0.27811063E+03</pdfrwt>
<totfact> 0.41600957E+02</totfact>
</mgrwt>
</event>
<event>
 4    0  0.1002184E-001  0.2453691E+03  0.7546771E-02  0.1116267E+00
          1   -1    0    0  502    0 -0.00000000000E+00  0.00000000000E+00  0.98943336078E+03  0.98943336078E+03  0.00000000000E+00 0.  1.
         21   -1    0    0  501  502  0.00000000000E+00 -0.00000000000E+00 -0.58597388382E+02  0.58597388382E+02  0.00000000000E+00 0. -1.
         25    1    1    2    0    0  0.15724078759E+03 -0.14091254596E+03  0.33035320199E+03  0.41150850411E+03  0.12500000000E+03 0.  0.
          1    1    1    2  501    0 -0.15724078759E+03  0.14091254596E+03  0.60048277041E+03  0.63652224505E+03  0.00000000000E+00 0.  1.
<mgrwt>
<rscale>  3 0.24536913E+03</rscale>
<asrwt>0</asrwt>
<pdfrwt beam="1">  1       21 0.90149836E-02 0.24536913E+03</pdfrwt>
<pdfrwt beam="2">  1        1 0.15222050E+00 0.24536913E+03</pdfrwt>
<totfact> 0.17625662E+04</totfact>
</mgrwt>
</event>
<event>
 4    0  0.1002184E-001  0.2547462E+03  0.7546771E-02  0.1110342E+00
         21   -1    0    0  501  502  0.00000000000E+00  0.00000000000E+00  0.47003239235E+02  0.47003239235E+02  0.00000000000E+00 0. -1.
          1   -1    0    0  502    0 -0.00000000000E+00 -0.00000000000E+00 -0.14136819433E+04  0.14136819433E+04  0.00000000000E+00 0.  1.
         25    1    1    2    0    0  0.38453763979E+02  0.21861371389E+03 -0.44599385579E+03  0.51362064529E+03  0.12500000000E+03 0.  0.
          1    1    1    2  501    0 -0.38453763979E+02 -0.21861371389E+03 -0.92068484828E+03  0.94706453725E+03  0.00000000000E+00 0.  1.
<mgrwt>
<rscale>  3 0.25474624E+03</rscale>
<asrwt>0</asrwt>
<pdfrwt beam="1">  1       21 0.72312681E-02 0.25474624E+03</pdfrwt>
<pdfrwt beam="2">  1        1 0.21748951E+00 0.25474624E+03</pdfrwt>
<totfact> 0.13025139E+04</totfact>
</mgrwt>
</event>
<event>
 4    0  0.1002184E-001  0.2381219E+03  0.7546771E-02  0.1121050E+00
          2   -1    0    0  502    0 -0.00000000000E+00  0.00000000000E+00  0.93336417176E+03  0.93336417176E+03  0.00000000000E+00 0.  1.
         21   -1    0    0  501  502  0.00000000000E+00 -0.00000000000E+00 -0.99001825704E+03  0.99001825704E+03  0.00000000000E+00 0.  1.
         25    1    1    2    0    0 -0.13671684945E+03 -0.14961798075E+03 -0.96436052966E+03  0.99332435199E+03  0.12500000000E+03 0.  0.
          2    1    1    2  501    0  0.13671684945E+03  0.14961798075E+03  0.90770644437E+03  0.93005807681E+03  0.00000000000E+00 0.  1.
<mgrwt>
<rscale>  3 0.23812190E+03</rscale>
<asrwt>0</asrwt>
<pdfrwt beam="1">  1       21 0.15231050E+00 0.23812190E+03</pdfrwt>
<pdfrwt beam="2">  1        2 0.14359449E+00 0.23812190E+03</pdfrwt>
<totfact> 0.10130759E+02</totfact>
</mgrwt>
</event>
<event>
 4    0  0.1446589E-001  0.2675030E+03  0.7546771E-02  0.1102717E+00
         21   -1    0    0  501  502  0.00000000000E+00  0.00000000000E+00  0.71846673151E+02  0.71846673151E+02  0.00000000000E+00 0. -1.
          1   -1    0    0  502    0 -0.00000000000E+00 -0.00000000000E+00 -0.16929897631E+04  0.16929897631E+04  0.00000000000E+00 0. -1.
         25    1    1    2    0    0  0.21672745586E+03  0.94668203620E+02 -0.22718210290E+03  0.35095522047E+03  0.12500000000E+03 0.  0.
          1    1    1    2  501    0 -0.21672745586E+03 -0.94668203620E+02 -0.13939609871E+04  0.14138812158E+04  0.00000000000E+00 0. -1.
<mgrwt>
<rscale>  3 0.26750301E+03</rscale>
<asrwt>0</asrwt>
<pdfrwt beam="1">  1       21 0.11053335E-01 0.26750301E+03</pdfrwt>
<pdfrwt beam="2">  1        1 0.26045995E+00 0.26750301E+03</pdfrwt>
<totfact> 0.40116434E+03</totfact>
</mgrwt>
</event>
<event>
 4    0  0.1237888E-001  0.2372887E+03  0.7546771E-02  0.1121612E+00
          2   -1    0    0  502    0 -0.00000000000E+00  0.00000000000E+00  0.15117927207E+04  0.15117927207E+04  0.00000000000E+00 0.  1.
         21   -1    0    0  501  502  0.00000000000E+00 -0.00000000000E+00 -0.90818349477E+02  0.90818349477E+02  0.00000000000E+00 0.  1.
         25    1    1    2    0    0 -0.11743028321E+03  0.16398488259E+03  0.85855463247E+02  0.25234316655E+03  0.12500000000E+03 0.  0.
          2    1    1    2  501    0  0.11743028321E+03 -0.16398488259E+03  0.13351189080E+04  0.13502679036E+04  0.00000000000E+00 0.  1.
<mgrwt>
<rscale>  3 0.23728867E+03</rscale>
<asrwt>0</asrwt>
<pdfrwt beam="1">  1       21 0.13972055E-01 0.23728867E+03</pdfrwt>
<pdfrwt beam="2">  1        2 0.23258348E+00 0.23728867E+03</pdfrwt>
<totfact> 0.75910401E+03</totfact>
</mgrwt>
</event>
<event>
 4    0  0.1002184E-001  0.2572234E+03  0.7546771E-02  0.1108823E+00
          1   -1    0    0  502    0 -0.00000000000E+00  0.00000000000E+00  0.49232627198E+03  0.49232627198E+03  0.00000000000E+00 0.  1.
         21   -1    0    0  501  502  0.00000000000E+00 -0.00000000000E+00 -0.19264554576E+03  0.19264554576E+03  0.00000000000E+00 0. -1.
         25    1    1    2    0    0  0.52607072120E+02 -0.21856667820E+03 -0.56898843786E+02  0.26344140768E+03  0.12500000000E+03 0.  0.
          1    1    1    2  501    0 -0.52607072120E+02  0.21856667820E+03  0.35657957001E+03  0.42153041006E+03  0.00000000000E+00 0.  1.
<mgrwt>
<rscale>  3 0.25722344E+03</rscale>
<asrwt>0</asrwt>
<pdfrwt beam="1">  1       21 0.29637777E-01 0.25722344E+03</pdfrwt>
<pdfrwt beam="2">  1        1 0.75742503E-01 0.25722344E+03</pdfrwt>
<totfact> 0.54586544E+03</totfact>
</mgrwt>
</event>
<event>
 4    0  0.1002184E-001  0.3841835E+03  0.7546771E-02  0.1049398E+00
         21   -1    0    0  501  502  0.00000000000E+00  0.00000000000E+00  0.19378412375E+03  0.19378412375E+03  0.00000000000E+00 0.  1.
          2   -1    0    0  502    0 -0.00000000000E+00 -0.00000000000E+00 -0.76641676469E+03  0.76641676469E+03  0.00000000000E+00 0. -1.
         25    1    1    2    0    0 -0.32789867538E+03 -0.15637897142E+03 -0.17673233841E+03  0.42288443274E+03  0.12500000000E+03 0.  0.
          2    1    1    2  501    0  0.32789867538E+03  0.15637897142E+03 -0.39590030253E+03  0.53731645569E+03  0.00000000000E+00 0. -1.
<mgrwt>
<rscale>  3 0.38418345E+03</rscale>
<asrwt>0</asrwt>
<pdfrwt beam="1">  1       21 0.29812942E-01 0.38418345E+03</pdfrwt>
<pdfrwt beam="2">  1        2 0.11791027E+00 0.38418345E+03</pdfrwt>
<totfact> 0.48545397E+03</totfact>
</mgrwt>
</event>
<event>
 4    0  0.1002184E-001  0.3025977E+03  0.7546771E-02  0.1083949E+00
         21   -1    0    0  501  502  0.00000000000E+00  0.00000000000E+00  0.58792574667E+02  0.58792574667E+02  0.00000000000E+00 0.  1.
          2   -1    0    0  502    0 -0.00000000000E+00 -0.00000000000E+00 -0.14898362005E+04  0.14898362005E+04  0.00000000000E+00 0. -1.
         25    1    1    2    0    0 -0.21274303827E+03 -0.17515920834E+03 -0.58170069839E+03  0.65569890278E+03  0.12500000000E+03 0.  0.
          2    1    1    2  501    0  0.21274303827E+03  0.17515920834E+03 -0.84934292740E+03  0.89292987235E+03  0.00000000000E+00 0. -1.
<mgrwt>
<rscale>  3 0.30259767E+03</rscale>
<asrwt>0</asrwt>
<pdfrwt beam="1">  1       21 0.90450109E-02 0.30259767E+03</pdfrwt>
<pdfrwt beam="2">  1        2 0.22920558E+00 0.30259767E+03</pdfrwt>
<totfact> 0.16724877E+04</totfact>
</mgrwt>
</event>
<event>
 4    0  0.1341454E-001  0.3320665E+03  0.7546771E-02  0.1070226E+00
         21   -1    0    0  501  502  0.00000000000E+00  0.00000000000E+00  0.13139518583E+04  0.13139518583E+04  0.00000000000E+00 0.  1.
          3   -1    0    0  502    0 -0.00000000000E+00 -0.00000000000E+00 -0.89869527111E+03  0.89869527111E+03  0.00000000000E+00 0.  1.
         25    1    1    2    0    0 -0.30720499660E+03  0.16378525647E+02  0.12655611609E+04  0.13084010158E+04  0.12500000000E+03 0.  0.
          3    1    1    2  501    0  0.30720499660E+03 -0.16378525647E+02 -0.85030457370E+03  0.90424611367E+03  0.00000000000E+00 0.  1.
<mgrwt>
<rscale>  3 0.33206651E+03</rscale>
<asrwt>0</asrwt>
<pdfrwt beam="1">  1       21 0.20214644E+00 0.33206651E+03</pdfrwt>
<pdfrwt beam="2">  1        3 0.13826081E+00 0.33206651E+03</pdfrwt>
<totfact> 0.24439734E+00</totfact>
</mgrwt>
</event>
<event>
 4    0  0.1391472E-001  0.3668004E+03  0.7546771E-02  0.1055923E+00
          2   -1    0    0  502    0 -0.00000000000E+00  0.00000000000E+00  0.70703721887E+03  0.70703721887E+03  0.00000000000E+00 0.  1.
         21   -1    0    0  501  502  0.00000000000E+00 -0.00000000000E+00 -0.56207528641E+03  0.56207528641E+03  0.00000000000E+00 0.  1.
         25    1    1    2    0    0 -0.29239145301E+03  0.18282445787E+03 -0.45053859178E+03  0.58097122723E+03  0.12500000000E+03 0.  0.
          2    1    1    2  501    0  0.29239145301E+03 -0.18282445787E+03  0.59550052424E+03  0.68814127805E+03  0.00000000000E+00 0.  1.
<mgrwt>
<rscale>  3 0.36680041E+03</rscale>
<asrwt>0</asrwt>
<pdfrwt beam="1">  1       21 0.86473121E-01 0.36680041E+03</pdfrwt>
<pdfrwt beam="2">  1        2 0.10877496E+00 0.36680041E+03</pdfrwt>
<totfact> 0.55555391E+02</totfact>
</mgrwt>
</event>
<event>
 4    0  0.1379006E-001  0.3340904E+03  0.7546771E-02  0.1069341E+00
         21   -1    0    0  501  502  0.00000000000E+00  0.00000000000E+00  0.14838191339E+03  0.14838191339E+03  0.00000000000E+00 0. -1.
          2   -1    0    0  502    0 -0.00000000000E+00 -0.00000000000E+00 -0.73132139606E+03  0.73132139606E+03  0.00000000000E+00 0. -1.
         25    1    1    2    0    0 -0.26279391150E+03 -0.16410584702E+03 -0.20895722361E+03  0.39405518680E+03  0.12500000000E+03 0.  0.
          2    1    1    2  501    0  0.26279391150E+03  0.16410584702E+03 -0.37398225905E+03  0.48564812265E+03  0.00000000000E+00 0. -1.
<mgrwt>
<rscale>  3 0.33409036E+03</rscale>
<asrwt>0</asrwt>
<pdfrwt beam="1">  1       21 0.22827987E-01 0.33409036E+03</pdfrwt>
<pdfrwt beam="2">  1        2 0.11251098E+00 0.33409036E+03</pdfrwt>
<totfact> 0.87401042E+03</totfact>
</mgrwt>
</event>
<event>
 4    0  0.1196950E-001  0.2455673E+03  0.7546771E-02  0.1116139E+00
          2   -1    0    0  502    0 -0.00000000000E+00  0.00000000000E+00  0.24618227404E+04  0.24618227404E+04  0.00000000000E+00 0. -1.
         21   -1    0    0  501  502  0.00000000000E+00 -0.00000000000E+00 -0.78331453086E+02  0.78331453086E+02  0.00000000000E+00 0. -1.
         25    1    1    2    0    0 -0.13612295444E+02  0.21093367773E+03  0.13206406562E+03  0.27882652029E+03  0.12500000000E+03 0.  0.
          2    1    1    2  501    0  0.13612295444E+02 -0.21093367773E+03  0.22514272217E+04  0.22613276732E+04  0.00000000000E+00 0. -1.
<mgrwt>
<rscale>  3 0.24556732E+03</rscale>
<asrwt>0</asrwt>
<pdfrwt beam="1">  1       21 0.12050995E-01 0.24556732E+03</pdfrwt>
<pdfrwt beam="2">  1        2 0.37874190E+00 0.24556732E+03</pdfrwt>
<totfact> 0.31104926E+03</totfact>
</mgrwt>
</event>
<event>
 4    0  0.1002184E-001  0.2468991E+03  0.7546771E-02  0.1115280E+00
          2   -1    0    0  502    0 -0.00000000000E+00  0.00000000000E+00  0.36782200375E+03  0.36782200375E+03  0.00000000000E+00 0. -1.
         21   -1    0    0  501  502  0.00000000000E+00 -0.00000000000E+00 -0.14768230120E+03  0.14768230120E+03  0.00000000000E+00 0.  1.
         25    1    1    2    0    0  0.13871258664E+03  0.16153317120E+03  0.75799983781E+02  0.25827269432E+03  0.12500000000E+03 0.  0.
          2    1    1    2  501    0 -0.13871258664E+03 -0.16153317120E+03  0.14433971877E+03  0.25723161063E+03  0.00000000000E+00 0. -1.
<mgrwt>
<rscale>  3 0.24689906E+03</rscale>
<asrwt>0</asrwt>
<pdfrwt beam="1">  1       21 0.22720354E-01 0.24689906E+03</pdfrwt>
<pdfrwt beam="2">  1        2 0.56588000E-01 0.24689906E+03</pdfrwt>
<totfact> 0.19640720E+04</totfact>
</mgrwt>
</event>
<event>
 4    0  0.1463878E-001  0.3158386E+03  0.7546771E-02  0.1077581E+00
         21   -1    0    0  501  502  0.00000000000E+00  0.00000000000E+00  0.92085738431E+02  0.92085738431E+02  0.00000000000E+00 0. -1.
          1   -1    0    0  502    0 -0.00000000000E+00 -0.00000000000E+00 -0.18501594000E+04  0.18501594000E+04  0.00000000000E+00 0. -1.
         25    1    1    2    0    0  0.24169319543E+03  0.16035402376E+03 -0.23991521893E+03  0.39662743971E+03  0.12500000000E+03 0.  0.
          1    1    1    2  501    0 -0.24169319543E+03 -0.16035402376E+03 -0.15181584426E+04  0.15456176987E+04  0.00000000000E+00 0. -1.
<mgrwt>
<rscale>  3 0.31583859E+03</rscale>
<asrwt>0</asrwt>
<pdfrwt beam="1">  1       21 0.14167037E-01 0.31583859E+03</pdfrwt>
<pdfrwt beam="2">  1        1 0.28463990E+00 0.31583859E+03</pdfrwt>
<totfact> 0.19863690E+03</totfact>
</mgrwt>
</event>
<event>
 4    0  0.1503051E-001  0.2818850E+03  0.7546771E-02  0.1094664E+00
          2   -1    0    0  502    0 -0.00000000000E+00  0.00000000000E+00  0.87066120908E+03  0.87066120908E+03  0.00000000000E+00 0.  1.
         21   -1    0    0  501  502  0.00000000000E+00 -0.00000000000E+00 -0.82051289647E+02  0.82051289647E+02  0.00000000000E+00 0.  1.
         25    1    1    2    0    0 -0.17745488285E+03  0.17984412982E+03  0.42016528057E+03  0.50596245856E+03  0.12500000000E+03 0.  0.
          2    1    1    2  501    0  0.17745488285E+03 -0.17984412982E+03  0.36844463887E+03  0.44675004017E+03  0.00000000000E+00 0.  1.
<mgrwt>
<rscale>  3 0.28188499E+03</rscale>
<asrwt>0</asrwt>
<pdfrwt beam="1">  1       21 0.12623276E-01 0.28188499E+03</pdfrwt>
<pdfrwt beam="2">  1        2 0.13394787E+00 0.28188499E+03</pdfrwt>
<totfact> 0.21227492E+04</totfact>
</mgrwt>
</event>
<event>
 4    0  0.1217284E-001  0.3985164E+03  0.7546771E-02  0.1044295E+00
         21   -1    0    0  501  502  0.00000000000E+00  0.00000000000E+00  0.91718728709E+02  0.91718728709E+02  0.00000000000E+00 0.  1.
          2   -1    0    0  502    0 -0.00000000000E+00 -0.00000000000E+00 -0.20372456384E+04  0.20372456384E+04  0.00000000000E+00 0.  1.
         25    1    1    2    0    0  0.26857019049E+03  0.26657156128E+03 -0.52629954070E+03  0.66015645952E+03  0.12500000000E+03 0.  0.
          2    1    1    2  501    0 -0.26857019049E+03 -0.26657156128E+03 -0.14192273690E+04  0.14688079076E+04  0.00000000000E+00 0.  1.
<mgrwt>
<rscale>  3 0.39851643E+03</rscale>
<asrwt>0</asrwt>
<pdfrwt beam="1">  1       21 0.14110573E-01 0.39851643E+03</pdfrwt>
<pdfrwt beam="2">  1        2 0.31342242E+00 0.39851643E+03</pdfrwt>
<totfact> 0.37373359E+03</totfact>
</mgrwt>
</event>
<event>
 4    0  0.1292116E-001  0.2405083E+03  0.7546771E-02  0.1119455E+00
         21   -1    0    0  501  502  0.00000000000E+00  0.00000000000E+00  0.20700951523E+03  0.20700951523E+03  0.00000000000E+00 0.  1.
          2   -1    0    0  502    0 -0.00000000000E+00 -0.00000000000E+00 -0.42013711792E+03  0.42013711792E+03  0.00000000000E+00 0.  1.
         25    1    1    2    0    0 -0.19957013226E+03 -0.48897945857E+02  0.93496956418E+02  0.25804249196E+03  0.12500000000E+03 0.  0.
          2    1    1    2  501    0  0.19957013226E+03  0.48897945857E+02 -0.30662455910E+03  0.36910414119E+03  0.00000000000E+00 0.  1.
<mgrwt>
<rscale>  3 0.24050831E+03</rscale>
<asrwt>0</asrwt>
<pdfrwt beam="1">  1       21 0.31847618E-01 0.24050831E+03</pdfrwt>
<pdfrwt beam="2">  1        2 0.64636479E-01 0.24050831E+03</pdfrwt>
<totfact> 0.88466837E+03</totfact>
</mgrwt>
</event>
<event>
 4    0  0.1198142E-001  0.2436382E+03  0.7546771E-02  0.1117393E+00
         21   -1    0    0  501  502  0.00000000000E+00  0.00000000000E+00  0.32618800844E+03  0.32618800844E+03  0.00000000000E+00 0. -1.
          2   -1    0    0  502    0 -0.00000000000E+00 -0.00000000000E+00 -0.39887569651E+03  0.39887569651E+03  0.00000000000E+00 0. -1.
         25    1    1    2    0    0 -0.95744119706E+01  0.20890884237E+03  0.24448241538E+03  0.34515391525E+03  0.12500000000E+03 0.  0.
          2    1    1    2  501    0  0.95744119706E+01 -0.20890884237E+03 -0.31717010344E+03  0.37990978969E+03  0.00000000000E+00 0. -1.
<mgrwt>
<rscale>  3 0.24363820E+03</rscale>
<asrwt>0</asrwt>
<pdfrwt beam="1">  1       21 0.50182770E-01 0.24363820E+03</pdfrwt>
<pdfrwt beam="2">  1        2 0.61365492E-01 0.24363820E+03</pdfrwt>
<totfact> 0.37124539E+03</totfact>
</mgrwt>
</event>
<event>
 4    0  0.1002184E-001  0.2513091E+03  0.7546771E-02  0.1112480E+00
          2   -1    0    0  502    0 -0.00000000000E+00  0.00000000000E+00  0.70066575070E+03  0.70066575070E+03  0.00000000000E+00 0. -1.
         21   -1    0    0  501  502  0.00000000000E+00 -0.00000000000E+00 -0.10495244505E+03  0.10495244505E+03  0.00000000000E+00 0.  1.
         25    1    1    2    0    0  0.21365977147E+03  0.43368084490E+02  0.11218575929E+03  0.27521252385E+03  0.12500000000E+03 0.  0.
          2    1    1    2  501    0 -0.21365977147E+03 -0.43368084490E+02  0.48352754636E+03  0.53040567190E+03  0.00000000000E+00 0. -1.
<mgrwt>
<rscale>  3 0.25130915E+03</rscale>
<asrwt>0</asrwt>
<pdfrwt beam="1">  1       21 0.16146530E-01 0.25130915E+03</pdfrwt>
<pdfrwt beam="2">  1        2 0.10779473E+00 0.25130915E+03</pdfrwt>
<totfact> 0.17918667E+04</totfact>
</mgrwt>
</event>
<event>
 4    0  0.1002184E-001  0.2404821E+03  0.7546771E-02  0.1119472E+00
         21   -1    0    0  501  502  0.00000000000E+00  0.00000000000E+00  0.34718660213E+03  0.34718660213E+03  0.00000000000E+00 0.  1.
          4   -1    0    0  502    0 -0.00000000000E+00 -0.00000000000E+00 -0.14790991360E+03  0.14790991360E+03  0.00000000000E+00 0. -1.
         25    1    1    2    0    0  0.13299684838E+03  0.15658383176E+03  0.15132549400E+03  0.28413212276E+03  0.12500000000E+03 0.  0.
          4    1    1    2  501    0 -0.13299684838E+03 -0.15658383176E+03  0.47951194528E+02  0.21096439297E+03  0.00000000000E+00 0. -1.
<mgrwt>
<rscale>  3 0.24048214E+03</rscale>
<asrwt>0</asrwt>
<pdfrwt beam="1">  1       21 0.53413323E-01 0.24048214E+03</pdfrwt>
<pdfrwt beam="2">  1        4 0.22755371E-01 0.24048214E+03</pdfrwt>
<totfact> 0.24951785E+03</totfact>
</mgrwt>
</event>
<event>
 4    0  0.1391311E-001  0.3366893E+03  0.7546771E-02  0.1068215E+00
          1   -1    0    0  502    0 -0.00000000000E+00  0.00000000000E+00  0.22451125660E+04  0.22451125660E+04  0.00000000000E+00 0. -1.
         21   -1    0    0  501  502  0.00000000000E+00 -0.00000000000E+00 -0.75825014283E+02  0.75825014283E+02  0.00000000000E+00 0. -1.
         25    1    1    2    0    0 -0.30256129426E+03 -0.78685180791E+02  0.39368160288E+03  0.51802017230E+03  0.12500000000E+03 0.  0.
          1    1    1    2  501    0  0.30256129426E+03  0.78685180791E+02  0.17756059489E+04  0.18029174080E+04  0.00000000000E+00 0. -1.
<mgrwt>
<rscale>  3 0.33668931E+03</rscale>
<asrwt>0</asrwt>
<pdfrwt beam="1">  1       21 0.11665389E-01 0.33668931E+03</pdfrwt>
<pdfrwt beam="2">  1        1 0.34540188E+00 0.33668931E+03</pdfrwt>
<totfact> 0.15484963E+03</totfact>
</mgrwt>
</event>
<event>
 4    0  0.1282130E-001  0.2416488E+03  0.7546771E-02  0.1118699E+00
         21   -1    0    0  501  502  0.00000000000E+00  0.00000000000E+00  0.69248654011E+02  0.69248654011E+02  0.00000000000E+00 0. -1.
          1   -1    0    0  502    0 -0.00000000000E+00 -0.00000000000E+00 -0.22437941865E+04  0.22437941865E+04  0.00000000000E+00 0. -1.
         25    1    1    2    0    0 -0.15065015103E+03  0.14168161454E+03 -0.16435973057E+03  0.29224693144E+03  0.12500000000E+03 0.  0.
          1    1    1    2  501    0  0.15065015103E+03 -0.14168161454E+03 -0.20101858019E+04  0.20207959090E+04  0.00000000000E+00 0. -1.
<mgrwt>
<rscale>  3 0.24164881E+03</rscale>
<asrwt>0</asrwt>
<pdfrwt beam="1">  1       21 0.10653640E-01 0.24164881E+03</pdfrwt>
<pdfrwt beam="2">  1        1 0.34519908E+00 0.24164881E+03</pdfrwt>
<totfact> 0.18993639E+03</totfact>
</mgrwt>
</event>
<event>
 4    0  0.1811534E-001  0.3145039E+03  0.7546771E-02  0.1078207E+00
         21   -1    0    0  501  502  0.00000000000E+00  0.00000000000E+00  0.46405961788E+02  0.46405961788E+02  0.00000000000E+00 0.  1.
         -3   -1    0    0    0  501 -0.00000000000E+00 -0.00000000000E+00 -0.22523127991E+04  0.22523127991E+04  0.00000000000E+00 0.  1.
         25    1    1    2    0    0  0.21341768545E+03 -0.19426931622E+03 -0.73008917164E+03  0.79494834690E+03  0.12500000000E+03 0.  0.
         -3    1    1    2    0  502 -0.21341768545E+03  0.19426931622E+03 -0.14758176657E+04  0.15037704140E+04  0.00000000000E+00 0.  1.
<mgrwt>
<rscale>  3 0.31450386E+03</rscale>
<asrwt>0</asrwt>
<pdfrwt beam="1">  1       21 0.71393780E-02 0.31450386E+03</pdfrwt>
<pdfrwt beam="2">  1       -3 0.34650970E+00 0.31450386E+03</pdfrwt>
<totfact> 0.17566849E+02</totfact>
</mgrwt>
</event>
<event>
 4    0  0.1234664E-001  0.2419191E+03  0.7546771E-02  0.1118521E+00
          2   -1    0    0  502    0 -0.00000000000E+00  0.00000000000E+00  0.27167855130E+03  0.27167855130E+03  0.00000000000E+00 0.  1.
         21   -1    0    0  501  502  0.00000000000E+00 -0.00000000000E+00 -0.37632368531E+03  0.37632368531E+03  0.00000000000E+00 0.  1.
         25    1    1    2    0    0 -0.13650424753E+03 -0.15577683805E+03 -0.28466859558E+03  0.37357869610E+03  0.12500000000E+03 0.  0.
          2    1    1    2  501    0  0.13650424753E+03  0.15577683805E+03  0.18002346158E+03  0.27442354051E+03  0.00000000000E+00 0.  1.
<mgrwt>
<rscale>  3 0.24191906E+03</rscale>
<asrwt>0</asrwt>
<pdfrwt beam="1">  1       21 0.57895952E-01 0.24191906E+03</pdfrwt>
<pdfrwt beam="2">  1        2 0.41796700E-01 0.24191906E+03</pdfrwt>
<totfact> 0.41549860E+03</totfact>
</mgrwt>
</event>
<event>
 4    0  0.1002184E-001  0.2461458E+03  0.7546771E-02  0.1115765E+00
          1   -1    0    0  502    0 -0.00000000000E+00  0.00000000000E+00  0.13941738084E+03  0.13941738084E+03  0.00000000000E+00 0. -1.
         21   -1    0    0  501  502  0.00000000000E+00 -0.00000000000E+00 -0.25449116650E+04  0.25449116650E+04  0.00000000000E+00 0.  1.
         25    1    1    2    0    0 -0.20762790603E+03 -0.43051412793E+02 -0.24544051288E+04  0.24667169087E+04  0.12500000000E+03 0.  0.
          1    1    1    2  501    0  0.20762790603E+03  0.43051412793E+02  0.48910844622E+02  0.21761213714E+03  0.00000000000E+00 0. -1.
<mgrwt>
<rscale>  3 0.24614583E+03</rscale>
<asrwt>0</asrwt>
<pdfrwt beam="1">  1       21 0.39152487E+00 0.24614583E+03</pdfrwt>
<pdfrwt beam="2">  1        1 0.21448828E-01 0.24614583E+03</pdfrwt>
<totfact> 0.23015875E+01</totfact>
</mgrwt>
</event>
<event>
 4    0  0.1248035E-001  0.2651429E+03  0.7546771E-02  0.1104092E+00
         21   -1    0    0  501  502  0.00000000000E+00  0.00000000000E+00  0.79341110866E+02  0.79341110866E+02  0.00000000000E+00 0.  1.
          2   -1    0    0  502    0 -0.00000000000E+00 -0.00000000000E+00 -0.17086429053E+04  0.17086429053E+04  0.00000000000E+00 0. -1.
         25    1    1    2    0    0  0.16671100707E+03 -0.16396089575E+03 -0.18124685547E+03  0.32117153957E+03  0.12500000000E+03 0.  0.
          2    1    1    2  501    0 -0.16671100707E+03  0.16396089575E+03 -0.14480549390E+04  0.14668124766E+04  0.00000000000E+00 0. -1.
<mgrwt>
<rscale>  3 0.26514286E+03</rscale>
<asrwt>0</asrwt>
<pdfrwt beam="1">  1       21 0.12206325E-01 0.26514286E+03</pdfrwt>
<pdfrwt beam="2">  1        2 0.26286814E+00 0.26514286E+03</pdfrwt>
<totfact> 0.75583741E+03</totfact>
</mgrwt>
</event>
<event>
 4    0  0.1509637E-001  0.2951164E+03  0.7546771E-02  0.1087708E+00
         21   -1    0    0  501  502  0.00000000000E+00  0.00000000000E+00  0.87340037753E+02  0.87340037753E+02  0.00000000000E+00 0. -1.
          1   -1    0    0  502    0 -0.00000000000E+00 -0.00000000000E+00 -0.90572279427E+03  0.90572279427E+03  0.00000000000E+00 0. -1.
         25    1    1    2    0    0  0.18573439032E+03  0.19227948214E+03 -0.42199294251E+03  0.51494825617E+03  0.12500000000E+03 0.  0.
          1    1    1    2  501    0 -0.18573439032E+03 -0.19227948214E+03 -0.39638981401E+03  0.47811457586E+03  0.00000000000E+00 0. -1.
<mgrwt>
<rscale>  3 0.29511636E+03</rscale>
<asrwt>0</asrwt>
<pdfrwt beam="1">  1       21 0.13436929E-01 0.29511636E+03</pdfrwt>
<pdfrwt beam="2">  1        1 0.13934197E+00 0.29511636E+03</pdfrwt>
<totfact> 0.98990434E+03</totfact>
</mgrwt>
</event>
<event>
 4    0  0.1324513E-001  0.2460274E+03  0.7546771E-02  0.1115841E+00
         21   -1    0    0  501  502  0.00000000000E+00  0.00000000000E+00  0.42921775146E+03  0.42921775146E+03  0.00000000000E+00 0. -1.
          2   -1    0    0  502    0 -0.00000000000E+00 -0.00000000000E+00 -0.16393731730E+04  0.16393731730E+04  0.00000000000E+00 0. -1.
         25    1    1    2    0    0  0.10636231456E+03 -0.18327993461E+03  0.38637661080E+03  0.45805715993E+03  0.12500000000E+03 0.  0.
          2    1    1    2  501    0 -0.10636231456E+03  0.18327993461E+03 -0.15965320323E+04  0.16105337645E+04  0.00000000000E+00 0. -1.
<mgrwt>
<rscale>  3 0.24602739E+03</rscale>
<asrwt>0</asrwt>
<pdfrwt beam="1">  1       21 0.66033499E-01 0.24602739E+03</pdfrwt>
<pdfrwt beam="2">  1        2 0.25221126E+00 0.24602739E+03</pdfrwt>
<totfact> 0.30018235E+02</totfact>
</mgrwt>
</event>
<event>
 4    0  0.1338548E-001  0.2529401E+03  0.7546771E-02  0.1111461E+00
          1   -1    0    0  502    0 -0.00000000000E+00  0.00000000000E+00  0.71619943799E+03  0.71619943799E+03  0.00000000000E+00 0. -1.
         21   -1    0    0  501  502  0.00000000000E+00 -0.00000000000E+00 -0.16768603489E+03  0.16768603489E+03  0.00000000000E+00 0.  1.
         25    1    1    2    0    0 -0.11729649679E+03 -0.18599785163E+03 -0.39587277384E+02  0.25601918190E+03  0.12500000000E+03 0.  0.
          1    1    1    2  501    0  0.11729649679E+03  0.18599785163E+03  0.58810068048E+03  0.62786629099E+03  0.00000000000E+00 0. -1.
<mgrwt>
<rscale>  3 0.25294005E+03</rscale>
<asrwt>0</asrwt>
<pdfrwt beam="1">  1       21 0.25797852E-01 0.25294005E+03</pdfrwt>
<pdfrwt beam="2">  1        1 0.11018453E+00 0.25294005E+03</pdfrwt>
<totfact> 0.42468091E+03</totfact>
</mgrwt>
</event>
<event>
 4    0  0.1748060E-001  0.3196320E+03  0.7546771E-02  0.1075819E+00
         21   -1    0    0  501  502  0.00000000000E+00  0.00000000000E+00  0.70884838348E+03  0.70884838348E+03  0.00000000000E+00 0.  1.
          2   -1    0    0  502    0 -0.00000000000E+00 -0.00000000000E+00 -0.99656061056E+03  0.99656061056E+03  0.00000000000E+00 0. -1.
         25    1    1    2    0    0 -0.28533473238E+03 -0.71579985996E+02  0.64908072858E+03  0.72351254040E+03  0.12500000000E+03 0.  0.
          2    1    1    2  501    0  0.28533473238E+03  0.71579985996E+02 -0.93679295566E+03  0.98189645364E+03  0.00000000000E+00 0. -1.
<mgrwt>
<rscale>  3 0.31963198E+03</rscale>
<asrwt>0</asrwt>
<pdfrwt beam="1">  1       21 0.10905360E+00 0.31963198E+03</pdfrwt>
<pdfrwt beam="2">  1        2 0.15331702E+00 0.31963198E+03</pdfrwt>
<totfact> 0.20649046E+02</totfact>
</mgrwt>
</event>
<event>
 4    0  0.1430060E-001  0.2367613E+03  0.7546771E-02  0.1121969E+00
         21   -1    0    0  501  502  0.00000000000E+00  0.00000000000E+00  0.11457673188E+03  0.11457673188E+03  0.00000000000E+00 0.  1.
          2   -1    0    0  502    0 -0.00000000000E+00 -0.00000000000E+00 -0.13733805631E+04  0.13733805631E+04  0.00000000000E+00 0. -1.
         25    1    1    2    0    0 -0.16798135997E+03  0.11051328646E+03 -0.25228461819E+02  0.23810165700E+03  0.12500000000E+03 0.  0.
          2    1    1    2  501    0  0.16798135997E+03 -0.11051328646E+03 -0.12335753694E+04  0.12498556380E+04  0.00000000000E+00 0. -1.
<mgrwt>
<rscale>  3 0.23676132E+03</rscale>
<asrwt>0</asrwt>
<pdfrwt beam="1">  1       21 0.17627190E-01 0.23676132E+03</pdfrwt>
<pdfrwt beam="2">  1        2 0.21128932E+00 0.23676132E+03</pdfrwt>
<totfact> 0.58813937E+03</totfact>
</mgrwt>
</event>
<event>
 4    0  0.1337689E-001  0.3535722E+03  0.7546771E-02  0.1061158E+00
          1   -1    0    0  502    0 -0.00000000000E+00  0.00000000000E+00  0.17158506105E+04  0.17158506105E+04  0.00000000000E+00 0. -1.
         21   -1    0    0  501  502  0.00000000000E+00 -0.00000000000E+00 -0.14509412612E+03  0.14509412612E+03  0.00000000000E+00 0.  1.
         25    1    1    2    0    0  0.13348557032E+03 -0.30260517714E+03  0.12063653868E+03  0.37358595421E+03  0.12500000000E+03 0.  0.
          1    1    1    2  501    0 -0.13348557032E+03  0.30260517714E+03  0.14501199457E+04  0.14873587825E+04  0.00000000000E+00 0. -1.
<mgrwt>
<rscale>  3 0.35357219E+03</rscale>
<asrwt>0</asrwt>
<pdfrwt beam="1">  1       21 0.22322174E-01 0.35357219E+03</pdfrwt>
<pdfrwt beam="2">  1        1 0.26397700E+00 0.35357219E+03</pdfrwt>
<totfact> 0.10252299E+03</totfact>
</mgrwt>
</event>
<event>
 4    0  0.1002184E-001  0.5761628E+03  0.7546771E-02  0.9956133E-01
          2   -1    0    0  502    0 -0.00000000000E+00  0.00000000000E+00  0.53996088243E+03  0.53996088243E+03  0.00000000000E+00 0.  1.
         21   -1    0    0  501  502  0.00000000000E+00 -0.00000000000E+00 -0.12354035856E+04  0.12354035856E+04  0.00000000000E+00 0. -1.
         25    1    1    2    0    0 -0.52283082408E+03 -0.20733183540E+03 -0.98623339163E+03  0.11421995725E+04  0.12500000000E+03 0.  0.
          2    1    1    2  501    0  0.52283082408E+03  0.20733183540E+03  0.29079068841E+03  0.63316489562E+03  0.00000000000E+00 0.  1.
<mgrwt>
<rscale>  3 0.57616279E+03</rscale>
<asrwt>0</asrwt>
<pdfrwt beam="1">  1       21 0.19006209E+00 0.57616279E+03</pdfrwt>
<pdfrwt beam="2">  1        2 0.83070906E-01 0.57616279E+03</pdfrwt>
<totfact> 0.91509640E+01</totfact>
</mgrwt>
</event>
<event>
 4    0  0.1002184E-001  0.3290572E+03  0.7546771E-02  0.1071555E+00
          4   -1    0    0  502    0 -0.00000000000E+00  0.00000000000E+00  0.12829064758E+03  0.12829064758E+03  0.00000000000E+00 0. -1.
         21   -1    0    0  501  502  0.00000000000E+00 -0.00000000000E+00 -0.12288873592E+04  0.12288873592E+04  0.00000000000E+00 0. -1.
         25    1    1    2    0    0  0.16541283655E+03  0.25552349871E+03 -0.97298207154E+03  0.10271186769E+04  0.12500000000E+03 0.  0.
          4    1    1    2  501    0 -0.16541283655E+03 -0.25552349871E+03 -0.12761464010E+03  0.33005932991E+03  0.00000000000E+00 0. -1.
<mgrwt>
<rscale>  3 0.32905724E+03</rscale>
<asrwt>0</asrwt>
<pdfrwt beam="1">  1       21 0.18905959E+00 0.32905724E+03</pdfrwt>
<pdfrwt beam="2">  1        4 0.19737023E-01 0.32905724E+03</pdfrwt>
<totfact> 0.14715931E+02</totfact>
</mgrwt>
</event>
<event>
 4    0  0.1493577E-001  0.3732330E+03  0.7546771E-02  0.1053464E+00
          2   -1    0    0  502    0 -0.00000000000E+00  0.00000000000E+00  0.20843504492E+04  0.20843504492E+04  0.00000000000E+00 0. -1.
         21   -1    0    0  501  502  0.00000000000E+00 -0.00000000000E+00 -0.69888137326E+03  0.69888137326E+03  0.00000000000E+00 0.  1.
         25    1    1    2    0    0  0.20493174238E+03  0.28579856435E+03 -0.63273673237E+03  0.73461460026E+03  0.12500000000E+03 0.  0.
          2    1    1    2  501    0 -0.20493174238E+03 -0.28579856435E+03  0.20182058083E+04  0.20486172222E+04  0.00000000000E+00 0. -1.
<mgrwt>
<rscale>  3 0.37323295E+03</rscale>
<asrwt>0</asrwt>
<pdfrwt beam="1">  1       21 0.10752021E+00 0.37323295E+03</pdfrwt>
<pdfrwt beam="2">  1        2 0.32066930E+00 0.37323295E+03</pdfrwt>
<totfact> 0.52279392E+01</totfact>
</mgrwt>
</event>
<event>
 4    0  0.1014609E-001  0.2393507E+03  0.7546771E-02  0.1120226E+00
         21   -1    0    0  501  502  0.00000000000E+00  0.00000000000E+00  0.85361973535E+02  0.85361973535E+02  0.00000000000E+00 0. -1.
          2   -1    0    0  502    0 -0.00000000000E+00 -0.00000000000E+00 -0.86817313419E+03  0.86817313419E+03  0.00000000000E+00 0.  1.
         25    1    1    2    0    0 -0.81623126282E+02 -0.18708668129E+03 -0.13601996760E+03  0.27530018643E+03  0.12500000000E+03 0.  0.
          2    1    1    2  501    0  0.81623126282E+02  0.18708668129E+03 -0.64679119305E+03  0.67823492129E+03  0.00000000000E+00 0.  1.
<mgrwt>
<rscale>  3 0.23935071E+03</rscale>
<asrwt>0</asrwt>
<pdfrwt beam="1">  1       21 0.13132611E-01 0.23935071E+03</pdfrwt>
<pdfrwt beam="2">  1        2 0.13356510E+00 0.23935071E+03</pdfrwt>
<totfact> 0.19977740E+04</totfact>
</mgrwt>
</event>
<event>
 4    0  0.1602327E-001  0.2412858E+03  0.7546771E-02  0.1118939E+00
         -2   -1    0    0    0  501 -0.00000000000E+00  0.00000000000E+00  0.50104785669E+03  0.50104785669E+03  0.00000000000E+00 0. -1.
         21   -1    0    0  501  502  0.00000000000E+00 -0.00000000000E+00 -0.15946254334E+03  0.15946254334E+03  0.00000000000E+00 0. -1.
         25    1    1    2    0    0 -0.15715903337E+03 -0.13377171355E+03 -0.22153036966E+02  0.24230061940E+03  0.12500000000E+03 0.  0.
         -2    1    1    2    0  502  0.15715903337E+03  0.13377171355E+03  0.36373835032E+03  0.41820978062E+03  0.00000000000E+00 0. -1.
<mgrwt>
<rscale>  3 0.24128579E+03</rscale>
<asrwt>0</asrwt>
<pdfrwt beam="1">  1       21 0.24532699E-01 0.24128579E+03</pdfrwt>
<pdfrwt beam="2">  1       -2 0.77084285E-01 0.24128579E+03</pdfrwt>
<totfact> 0.19625800E+03</totfact>
</mgrwt>
</event>
<event>
 4    0  0.1085065E-001  0.2722405E+03  0.7546771E-02  0.1100004E+00
         21   -1    0    0  501  502  0.00000000000E+00  0.00000000000E+00  0.23858477248E+03  0.23858477248E+03  0.00000000000E+00 0. -1.
         -2   -1    0    0    0  501 -0.00000000000E+00 -0.00000000000E+00 -0.64743050104E+03  0.64743050104E+03  0.00000000000E+00 0.  1.
         25    1    1    2    0    0 -0.20816357689E+03  0.12311717563E+03  0.12528330334E+03  0.29968453376E+03  0.12500000000E+03 0.  0.
         -2    1    1    2    0  502  0.20816357689E+03 -0.12311717563E+03 -0.53412903189E+03  0.58633073976E+03  0.00000000000E+00 0.  1.
<mgrwt>
<rscale>  3 0.27224054E+03</rscale>
<asrwt>0</asrwt>
<pdfrwt beam="1">  1       21 0.36705350E-01 0.27224054E+03</pdfrwt>
<pdfrwt beam="2">  1       -2 0.99604693E-01 0.27224054E+03</pdfrwt>
<totfact> 0.49513767E+02</totfact>
</mgrwt>
</event>
<event>
 4    0  0.1423614E-001  0.2755196E+03  0.7546771E-02  0.1098162E+00
          2   -1    0    0  502    0 -0.00000000000E+00  0.00000000000E+00  0.17550881068E+04  0.17550881068E+04  0.00000000000E+00 0. -1.
         21   -1    0    0  501  502  0.00000000000E+00 -0.00000000000E+00 -0.14455202674E+03  0.14455202674E+03  0.00000000000E+00 0.  1.
         25    1    1    2    0    0 -0.11261481541E+03 -0.21818330688E+03  0.51307474230E+01  0.27556737220E+03  0.12500000000E+03 0.  0.
          2    1    1    2  501    0  0.11261481541E+03  0.21818330688E+03  0.16054053326E+04  0.16240727613E+04  0.00000000000E+00 0. -1.
<mgrwt>
<rscale>  3 0.27551960E+03</rscale>
<asrwt>0</asrwt>
<pdfrwt beam="1">  1       21 0.22238775E-01 0.27551960E+03</pdfrwt>
<pdfrwt beam="2">  1        2 0.27001354E+00 0.27551960E+03</pdfrwt>
<totfact> 0.23446612E+03</totfact>
</mgrwt>
</event>
<event>
 4    0  0.1251195E-001  0.2928116E+03  0.7546771E-02  0.1088890E+00
         21   -1    0    0  501  502  0.00000000000E+00  0.00000000000E+00  0.74110124389E+03  0.74110124389E+03  0.00000000000E+00 0. -1.
         -2   -1    0    0    0  501 -0.00000000000E+00 -0.00000000000E+00 -0.10604372821E+03  0.10604372821E+03  0.00000000000E+00 0. -1.
         25    1    1    2    0    0  0.25932065585E+03  0.53539153928E+02  0.28907541698E+03  0.41146474971E+03  0.12500000000E+03 0.  0.
         -2    1    1    2    0  502 -0.25932065585E+03 -0.53539153928E+02  0.34598209870E+03  0.43568022238E+03  0.00000000000E+00 0. -1.
<mgrwt>
<rscale>  3 0.29281162E+03</rscale>
<asrwt>0</asrwt>
<pdfrwt beam="1">  1       21 0.11401557E+00 0.29281162E+03</pdfrwt>
<pdfrwt beam="2">  1       -2 0.16314420E-01 0.29281162E+03</pdfrwt>
<totfact> 0.13641222E+03</totfact>
</mgrwt>
</event>
<event>
 4    0  0.1698853E-001  0.3528719E+03  0.7546771E-02  0.1061442E+00
         21   -1    0    0  501  502  0.00000000000E+00  0.00000000000E+00  0.59670812032E+03  0.59670812032E+03  0.00000000000E+00 0.  1.
          2   -1    0    0  502    0 -0.00000000000E+00 -0.00000000000E+00 -0.17236138918E+04  0.17236138918E+04  0.00000000000E+00 0. -1.
         25    1    1    2    0    0 -0.24204358157E+03 -0.22429555984E+03  0.52677226705E+03  0.63404070443E+03  0.12500000000E+03 0.  0.
          2    1    1    2  501    0  0.24204358157E+03  0.22429555984E+03 -0.16536780385E+04  0.16862813077E+04  0.00000000000E+00 0. -1.
<mgrwt>
<rscale>  3 0.35287192E+03</rscale>
<asrwt>0</asrwt>
<pdfrwt beam="1">  1       21 0.91801251E-01 0.35287192E+03</pdfrwt>
<pdfrwt beam="2">  1        2 0.26517136E+00 0.35287192E+03</pdfrwt>
<totfact> 0.12035881E+02</totfact>
</mgrwt>
</event>
<event>
 4    0  0.1102636E-001  0.3439400E+03  0.7546771E-02  0.1065130E+00
          1   -1    0    0  502    0 -0.00000000000E+00  0.00000000000E+00  0.29516547098E+04  0.29516547098E+04  0.00000000000E+00 0.  1.
         21   -1    0    0  501  502  0.00000000000E+00 -0.00000000000E+00 -0.97795241079E+02  0.97795241079E+02  0.00000000000E+00 0.  1.
         25    1    1    2    0    0  0.31988315830E+03  0.18559768645E+02  0.24815251888E+03  0.42411598956E+03  0.12500000000E+03 0.  0.
          1    1    1    2  501    0 -0.31988315830E+03 -0.18559768645E+02  0.26057069499E+04  0.26253339613E+04  0.00000000000E+00 0.  1.
<mgrwt>
<rscale>  3 0.34393997E+03</rscale>
<asrwt>0</asrwt>
<pdfrwt beam="1">  1       21 0.15045424E-01 0.34393997E+03</pdfrwt>
<pdfrwt beam="2">  1        1 0.45410066E+00 0.34393997E+03</pdfrwt>
<totfact> 0.32281523E+02</totfact>
</mgrwt>
</event>
<event>
 4    0  0.1478736E-001  0.2777477E+03  0.7546771E-02  0.1096925E+00
         21   -1    0    0  501  502  0.00000000000E+00  0.00000000000E+00  0.15391616204E+03  0.15391616204E+03  0.00000000000E+00 0.  1.
          1   -1    0    0  502    0 -0.00000000000E+00 -0.00000000000E+00 -0.73076412316E+03  0.73076412316E+03  0.00000000000E+00 0.  1.
         25    1    1    2    0    0 -0.15647487958E+03 -0.19244322185E+03 -0.24047680959E+02  0.27878678687E+03  0.12500000000E+03 0.  0.
          1    1    1    2  501    0  0.15647487958E+03  0.19244322185E+03 -0.55280028016E+03  0.60589349833E+03  0.00000000000E+00 0.  1.
<mgrwt>
<rscale>  3 0.27774769E+03</rscale>
<asrwt>0</asrwt>
<pdfrwt beam="1">  1       21 0.23679409E-01 0.27774769E+03</pdfrwt>
<pdfrwt beam="2">  1        1 0.11242525E+00 0.27774769E+03</pdfrwt>
<totfact> 0.48268034E+03</totfact>
</mgrwt>
</event>
<event>
 4    0  0.1002184E-001  0.3349950E+03  0.7546771E-02  0.1068948E+00
         21   -1    0    0  501  502  0.00000000000E+00  0.00000000000E+00  0.79468851086E+02  0.79468851086E+02  0.00000000000E+00 0. -1.
          2   -1    0    0  502    0 -0.00000000000E+00 -0.00000000000E+00 -0.14108607094E+04  0.14108607094E+04  0.00000000000E+00 0.  1.
         25    1    1    2    0    0  0.13563389964E+03 -0.27964285356E+03 -0.49176149725E+03  0.59502189074E+03  0.12500000000E+03 0.  0.
          2    1    1    2  501    0 -0.13563389964E+03  0.27964285356E+03 -0.83963036103E+03  0.89530766971E+03  0.00000000000E+00 0.  1.
<mgrwt>
<rscale>  3 0.33499505E+03</rscale>
<asrwt>0</asrwt>
<pdfrwt beam="1">  1       21 0.12225977E-01 0.33499505E+03</pdfrwt>
<pdfrwt beam="2">  1        2 0.21705550E+00 0.33499505E+03</pdfrwt>
<totfact> 0.10682202E+04</totfact>
</mgrwt>
</event>
<event>
 4    0  0.1002184E-001  0.2700228E+03  0.7546771E-02  0.1101267E+00
         21   -1    0    0  501  502  0.00000000000E+00  0.00000000000E+00  0.18559014061E+03  0.18559014061E+03  0.00000000000E+00 0.  1.
         -3   -1    0    0    0  501 -0.00000000000E+00 -0.00000000000E+00 -0.45339737867E+03  0.45339737867E+03  0.00000000000E+00 0. -1.
         25    1    1    2    0    0 -0.23691675581E+03 -0.34025969897E+02  0.12604529559E+02  0.27031683258E+03  0.12500000000E+03 0.  0.
         -3    1    1    2    0  502  0.23691675581E+03  0.34025969897E+02 -0.28041176762E+03  0.36867068670E+03  0.00000000000E+00 0. -1.
<mgrwt>
<rscale>  3 0.27002281E+03</rscale>
<asrwt>0</asrwt>
<pdfrwt beam="1">  1       21 0.28552330E-01 0.27002281E+03</pdfrwt>
<pdfrwt beam="2">  1       -3 0.69753442E-01 0.27002281E+03</pdfrwt>
<totfact> 0.11545394E+03</totfact>
</mgrwt>
</event>
<event>
 4    0  0.1421038E-001  0.4235594E+03  0.7546771E-02  0.1035914E+00
         21   -1    0    0  501  502  0.00000000000E+00  0.00000000000E+00  0.52321921676E+03  0.52321921676E+03  0.00000000000E+00 0.  1.
          1   -1    0    0  502    0 -0.00000000000E+00 -0.00000000000E+00 -0.19030285543E+04  0.19030285543E+04  0.00000000000E+00 0. -1.
         25    1    1    2    0    0 -0.34636932534E+03  0.20929854619E+03  0.41105448349E+03  0.59022739632E+03  0.12500000000E+03 0.  0.
          1    1    1    2  501    0  0.34636932534E+03 -0.20929854619E+03 -0.17908638211E+04  0.18360203748E+04  0.00000000000E+00 0. -1.
<mgrwt>
<rscale>  3 0.42355943E+03</rscale>
<asrwt>0</asrwt>
<pdfrwt beam="1">  1       21 0.80495265E-01 0.42355943E+03</pdfrwt>
<pdfrwt beam="2">  1        1 0.29277362E+00 0.42355943E+03</pdfrwt>
<totfact> 0.51877442E+01</totfact>
</mgrwt>
</event>
<event>
 4    0  0.1311227E-001  0.2594800E+03  0.7546771E-02  0.1107456E+00
         -3   -1    0    0    0  501 -0.00000000000E+00  0.00000000000E+00  0.83838855485E+02  0.83838855485E+02  0.00000000000E+00 0. -1.
         21   -1    0    0  501  502  0.00000000000E+00 -0.00000000000E+00 -0.12252198626E+04  0.12252198626E+04  0.00000000000E+00 0. -1.
         25    1    1    2    0    0  0.21675880975E+03  0.68705637949E+02 -0.16718091531E+03  0.30867345972E+03  0.12500000000E+03 0.  0.
         -3    1    1    2    0  502 -0.21675880975E+03 -0.68705637949E+02 -0.97420009185E+03  0.10003852584E+04  0.00000000000E+00 0. -1.
<mgrwt>
<rscale>  3 0.25947995E+03</rscale>
<asrwt>0</asrwt>
<pdfrwt beam="1">  1       21 0.18849534E+00 0.25947995E+03</pdfrwt>
<pdfrwt beam="2">  1       -3 0.12898287E-01 0.25947995E+03</pdfrwt>
<totfact> 0.36862140E+02</totfact>
</mgrwt>
</event>
<event>
 4    0  0.1343460E-001  0.3929068E+03  0.7546771E-02  0.1046264E+00
         21   -1    0    0  501  502  0.00000000000E+00  0.00000000000E+00  0.87357332277E+03  0.87357332277E+03  0.00000000000E+00 0. -1.
          1   -1    0    0  502    0 -0.00000000000E+00 -0.00000000000E+00 -0.73439174326E+03  0.73439174326E+03  0.00000000000E+00 0. -1.
         25    1    1    2    0    0 -0.22527561021E+03  0.29665073192E+03  0.77623137100E+03  0.87000626356E+03  0.12500000000E+03 0.  0.
          1    1    1    2  501    0  0.22527561021E+03 -0.29665073192E+03 -0.63704979150E+03  0.73795880247E+03  0.00000000000E+00 0. -1.
<mgrwt>
<rscale>  3 0.39290680E+03</rscale>
<asrwt>0</asrwt>
<pdfrwt beam="1">  1       21 0.13439590E+00 0.39290680E+03</pdfrwt>
<pdfrwt beam="2">  1        1 0.11298334E+00 0.39290680E+03</pdfrwt>
<totfact> 0.10316337E+02</totfact>
</mgrwt>
</event>
<event>
 4    0  0.1197857E-001  0.2383522E+03  0.7546771E-02  0.1120895E+00
         21   -1    0    0  501  502  0.00000000000E+00  0.00000000000E+00  0.34950770926E+03  0.34950770926E+03  0.00000000000E+00 0. -1.
          1   -1    0    0  502    0 -0.00000000000E+00 -0.00000000000E+00 -0.47553194250E+03  0.47553194250E+03  0.00000000000E+00 0.  1.
         25    1    1    2    0    0 -0.15962034290E+03 -0.12533212361E+03  0.28205666336E+03  0.36928005149E+03  0.12500000000E+03 0.  0.
          1    1    1    2  501    0  0.15962034290E+03  0.12533212361E+03 -0.40808089660E+03  0.45575960028E+03  0.00000000000E+00 0.  1.
<mgrwt>
<rscale>  3 0.23835225E+03</rscale>
<asrwt>0</asrwt>
<pdfrwt beam="1">  1       21 0.53770417E-01 0.23835225E+03</pdfrwt>
<pdfrwt beam="2">  1        1 0.73158761E-01 0.23835225E+03</pdfrwt>
<totfact> 0.17109341E+03</totfact>
</mgrwt>
</event>
<event>
 4    0  0.1280303E-001  0.2678842E+03  0.7546771E-02  0.1102497E+00
         21   -1    0    0  501  502  0.00000000000E+00  0.00000000000E+00  0.87647591212E+02  0.87647591212E+02  0.00000000000E+00 0.  1.
          2   -1    0    0  502    0 -0.00000000000E+00 -0.00000000000E+00 -0.14546913153E+04  0.14546913153E+04  0.00000000000E+00 0. -1.
         25    1    1    2    0    0 -0.12510398655E+03 -0.20121117333E+03 -0.15950476734E+03  0.31177510248E+03  0.12500000000E+03 0.  0.
          2    1    1    2  501    0  0.12510398655E+03  0.20121117333E+03 -0.12075389568E+04  0.12305638040E+04  0.00000000000E+00 0. -1.
<mgrwt>
<rscale>  3 0.26788420E+03</rscale>
<asrwt>0</asrwt>
<pdfrwt beam="1">  1       21 0.13484246E-01 0.26788420E+03</pdfrwt>
<pdfrwt beam="2">  1        2 0.22379864E+00 0.26788420E+03</pdfrwt>
<totfact> 0.86061079E+03</totfact>
</mgrwt>
</event>
<event>
 4    0  0.1206118E-001  0.2895243E+03  0.7546771E-02  0.1090598E+00
         21   -1    0    0  501  502  0.00000000000E+00  0.00000000000E+00  0.81477340251E+03  0.81477340251E+03  0.00000000000E+00 0. -1.
          2   -1    0    0  502    0 -0.00000000000E+00 -0.00000000000E+00 -0.20906311461E+03  0.20906311461E+03  0.00000000000E+00 0. -1.
         25    1    1    2    0    0 -0.26098774188E+03 -0.92039727496E+01  0.69092594587E+03  0.74913481911E+03  0.12500000000E+03 0.  0.
          2    1    1    2  501    0  0.26098774188E+03  0.92039727496E+01 -0.85215657966E+02  0.27470169801E+03  0.00000000000E+00 0. -1.
<mgrwt>
<rscale>  3 0.28952429E+03</rscale>
<asrwt>0</asrwt>
<pdfrwt beam="1">  1       21 0.12534975E+00 0.28952429E+03</pdfrwt>
<pdfrwt beam="2">  1        2 0.32163557E-01 0.28952429E+03</pdfrwt>
<totfact> 0.90690881E+02</totfact>
</mgrwt>
</event>
<event>
 4    0  0.1310174E-001  0.2539383E+03  0.7546771E-02  0.1110841E+00
         21   -1    0    0  501  502  0.00000000000E+00  0.00000000000E+00  0.19495446473E+03  0.19495446473E+03  0.00000000000E+00 0.  1.
          1   -1    0    0  502    0 -0.00000000000E+00 -0.00000000000E+00 -0.46846906274E+03  0.46846906274E+03  0.00000000000E+00 0.  1.
         25    1    1    2    0    0 -0.17924415839E+03  0.12934920060E+03  0.62226317705E+02  0.26145133128E+03  0.12500000000E+03 0.  0.
          1    1    1    2  501    0  0.17924415839E+03 -0.12934920060E+03 -0.33574091572E+03  0.40197219618E+03  0.00000000000E+00 0.  1.
<mgrwt>
<rscale>  3 0.25393835E+03</rscale>
<asrwt>0</asrwt>
<pdfrwt beam="1">  1       21 0.29992995E-01 0.25393835E+03</pdfrwt>
<pdfrwt beam="2">  1        1 0.72072163E-01 0.25393835E+03</pdfrwt>
<totfact> 0.56990974E+03</totfact>
</mgrwt>
</event>
<event>
 4    0  0.1002184E-001  0.4921486E+03  0.7546771E-02  0.1015849E+00
         21   -1    0    0  501  502  0.00000000000E+00  0.00000000000E+00  0.47785825301E+03  0.47785825301E+03  0.00000000000E+00 0. -1.
          2   -1    0    0  502    0 -0.00000000000E+00 -0.00000000000E+00 -0.53245700908E+03  0.53245700908E+03  0.00000000000E+00 0.  1.
         25    1    1    2    0    0  0.47449908455E+03  0.37893374299E+02  0.11426754560E+03  0.50523990444E+03  0.12500000000E+03 0.  0.
          2    1    1    2  501    0 -0.47449908455E+03 -0.37893374299E+02 -0.16886630167E+03  0.50507535764E+03  0.00000000000E+00 0.  1.
<mgrwt>
<rscale>  3 0.49214865E+03</rscale>
<asrwt>0</asrwt>
<pdfrwt beam="1">  1       21 0.73516654E-01 0.49214865E+03</pdfrwt>
<pdfrwt beam="2">  1        2 0.81916463E-01 0.49214865E+03</pdfrwt>
<totfact> 0.10969215E+03</totfact>
</mgrwt>
</event>
<event>
 4    0  0.1042931E-001  0.2536318E+03  0.7546771E-02  0.1111031E+00
          2   -1    0    0  502    0 -0.00000000000E+00  0.00000000000E+00  0.24395274691E+03  0.24395274691E+03  0.00000000000E+00 0.  1.
         21   -1    0    0  501  502  0.00000000000E+00 -0.00000000000E+00 -0.59062824806E+03  0.59062824806E+03  0.00000000000E+00 0. -1.
         25    1    1    2    0    0 -0.20827465529E+03 -0.72977800594E+02 -0.50354804381E+03  0.56381710141E+03  0.12500000000E+03 0.  0.
          2    1    1    2  501    0  0.20827465529E+03  0.72977800594E+02  0.15687254266E+03  0.27076389356E+03  0.00000000000E+00 0.  1.
<mgrwt>
<rscale>  3 0.25363180E+03</rscale>
<asrwt>0</asrwt>
<pdfrwt beam="1">  1       21 0.90865884E-01 0.25363180E+03</pdfrwt>
<pdfrwt beam="2">  1        2 0.37531192E-01 0.25363180E+03</pdfrwt>
<totfact> 0.16974257E+03</totfact>
</mgrwt>
</event>
<event>
 4    0  0.1002184E-001  0.3866679E+03  0.7546771E-02  0.1048496E+00
         21   -1    0    0  501  502  0.00000000000E+00  0.00000000000E+00  0.19211176911E+03  0.19211176911E+03  0.00000000000E+00 0. -1.
          2   -1    0    0  502    0 -0.00000000000E+00 -0.00000000000E+00 -0.90878989972E+03  0.90878989972E+03  0.00000000000E+00 0.  1.
         25    1    1    2    0    0  0.27931737712E+03  0.23636597018E+03 -0.12712643579E+03  0.40702972827E+03  0.12500000000E+03 0.  0.
          2    1    1    2  501    0 -0.27931737712E+03 -0.23636597018E+03 -0.58955169482E+03  0.69387194055E+03  0.00000000000E+00 0.  1.
<mgrwt>
<rscale>  3 0.38666791E+03</rscale>
<asrwt>0</asrwt>
<pdfrwt beam="1">  1       21 0.29555657E-01 0.38666791E+03</pdfrwt>
<pdfrwt beam="2">  1        2 0.13981383E+00 0.38666791E+03</pdfrwt>
<totfact> 0.39423561E+03</totfact>
</mgrwt>
</event>
<event>
 4    0  0.1002184E-001  0.3710387E+03  0.7546771E-02  0.1054297E+00
          1   -1    0    0  502    0 -0.00000000000E+00  0.00000000000E+00  0.12015488925E+04  0.12015488925E+04  0.00000000000E+00 0.  1.
         21   -1    0    0  501  502  0.00000000000E+00 -0.00000000000E+00 -0.19885018035E+04  0.19885018035E+04  0.00000000000E+00 0.  1.
         25    1    1    2    0    0  0.32782598154E+03  0.12072628137E+03 -0.19451970554E+04  0.19802679853E+04  0.12500000000E+03 0.  0.
          1    1    1    2  501    0 -0.32782598154E+03 -0.12072628137E+03  0.11582441444E+04  0.12097827107E+04  0.00000000000E+00 0.  1.
<mgrwt>
<rscale>  3 0.37103869E+03</rscale>
<asrwt>0</asrwt>
<pdfrwt beam="1">  1       21 0.30592335E+00 0.37103869E+03</pdfrwt>
<pdfrwt beam="2">  1        1 0.18485368E+00 0.37103869E+03</pdfrwt>
<totfact> 0.33066539E+00</totfact>
</mgrwt>
</event>
<event>
 4    0  0.1879628E-001  0.2428702E+03  0.7546771E-02  0.1117895E+00
         -4   -1    0    0    0  501 -0.00000000000E+00  0.00000000000E+00  0.44374433969E+03  0.44374433969E+03  0.00000000000E+00 0.  1.
         21   -1    0    0  501  502  0.00000000000E+00 -0.00000000000E+00 -0.14054277232E+03  0.14054277232E+03  0.00000000000E+00 0.  1.
         25    1    1    2    0    0  0.20513634463E+03 -0.35776998563E+02  0.28619961382E+03  0.37536133587E+03  0.12500000000E+03 0.  0.
         -4    1    1    2    0  502 -0.20513634463E+03  0.35776998563E+02  0.17001953550E+02  0.20892577615E+03  0.00000000000E+00 0.  1.
<mgrwt>
<rscale>  3 0.24287016E+03</rscale>
<asrwt>0</asrwt>
<pdfrwt beam="1">  1       21 0.21621965E-01 0.24287016E+03</pdfrwt>
<pdfrwt beam="2">  1       -4 0.68268360E-01 0.24287016E+03</pdfrwt>
<totfact> 0.16938874E+03</totfact>
</mgrwt>
</event>
<event>
 4    0  0.1002184E-001  0.3139686E+03  0.7546771E-02  0.1078459E+00
          2   -1    0    0  502    0 -0.00000000000E+00  0.00000000000E+00  0.41849890944E+04  0.41849890944E+04  0.00000000000E+00 0. -1.
         21   -1    0    0  501  502  0.00000000000E+00 -0.00000000000E+00 -0.61783401705E+02  0.61783401705E+02  0.00000000000E+00 0. -1.
         25    1    1    2    0    0 -0.81789661778E+02  0.27615527909E+03  0.38187839286E+03  0.49437576182E+03  0.12500000000E+03 0.  0.
          2    1    1    2  501    0  0.81789661778E+02 -0.27615527909E+03  0.37413272999E+04  0.37523967343E+04  0.00000000000E+00 0. -1.
<mgrwt>
<rscale>  3 0.31396861E+03</rscale>
<asrwt>0</asrwt>
<pdfrwt beam="1">  1       21 0.95051420E-02 0.31396861E+03</pdfrwt>
<pdfrwt beam="2">  1        2 0.64384425E+00 0.31396861E+03</pdfrwt>
<totfact> 0.34682689E+02</totfact>
</mgrwt>
</event>
<event>
 4    0  0.1573418E-001  0.2625677E+03  0.7546771E-02  0.1105610E+00
          2   -1    0    0  502    0 -0.00000000000E+00  0.00000000000E+00  0.10891015653E+04  0.10891015653E+04  0.00000000000E+00 0.  1.
         21   -1    0    0  501  502  0.00000000000E+00 -0.00000000000E+00 -0.18275468756E+03  0.18275468756E+03  0.00000000000E+00 0.  1.
         25    1    1    2    0    0  0.10018119466E+03  0.20803965755E+03 -0.67421571785E+02  0.27108566767E+03  0.12500000000E+03 0.  0.
          2    1    1    2  501    0 -0.10018119466E+03 -0.20803965755E+03  0.97376844956E+03  0.10007705852E+04  0.00000000000E+00 0.  1.
<mgrwt>
<rscale>  3 0.26256765E+03</rscale>
<asrwt>0</asrwt>
<pdfrwt beam="1">  1       21 0.28116107E-01 0.26256765E+03</pdfrwt>
<pdfrwt beam="2">  1        2 0.16755408E+00 0.26256765E+03</pdfrwt>
<totfact> 0.34745461E+03</totfact>
</mgrwt>
</event>
<event>
 4    0  0.1002184E-001  0.2359231E+03  0.7546771E-02  0.1122539E+00
          1   -1    0    0  502    0 -0.00000000000E+00  0.00000000000E+00  0.17108148172E+04  0.17108148172E+04  0.00000000000E+00 0. -1.
         21   -1    0    0  501  502  0.00000000000E+00 -0.00000000000E+00 -0.13826985082E+03  0.13826985082E+03  0.00000000000E+00 0. -1.
         25    1    1    2    0    0  0.13589350015E+03  0.14685939727E+03 -0.26647823085E+02  0.23742331904E+03  0.12500000000E+03 0.  0.
          1    1    1    2  501    0 -0.13589350015E+03 -0.14685939727E+03  0.15991927895E+04  0.16116613490E+04  0.00000000000E+00 0. -1.
<mgrwt>
<rscale>  3 0.23592314E+03</rscale>
<asrwt>0</asrwt>
<pdfrwt beam="1">  1       21 0.21272286E-01 0.23592314E+03</pdfrwt>
<pdfrwt beam="2">  1        1 0.26320226E+00 0.23592314E+03</pdfrwt>
<totfact> 0.11893487E+03</totfact>
</mgrwt>
</event>
<event>
 4    0  0.1340989E-001  0.2520518E+03  0.7546771E-02  0.1112015E+00
         21   -1    0    0  501  502  0.00000000000E+00  0.00000000000E+00  0.92005358653E+03  0.92005358653E+03  0.00000000000E+00 0. -1.
          2   -1    0    0  502    0 -0.00000000000E+00 -0.00000000000E+00 -0.45065687235E+03  0.45065687235E+03  0.00000000000E+00 0.  1.
         25    1    1    2    0    0 -0.14628354762E+03 -0.16280727712E+03  0.87458793426E+03  0.91018357518E+03  0.12500000000E+03 0.  0.
          2    1    1    2  501    0  0.14628354762E+03  0.16280727712E+03 -0.40519122007E+03  0.46052688370E+03  0.00000000000E+00 0.  1.
<mgrwt>
<rscale>  3 0.25205175E+03</rscale>
<asrwt>0</asrwt>
<pdfrwt beam="1">  1       21 0.14154671E+00 0.25205175E+03</pdfrwt>
<pdfrwt beam="2">  1        2 0.69331827E-01 0.25205175E+03</pdfrwt>
<totfact> 0.29242912E+02</totfact>
</mgrwt>
</event>
<event>
 4    0  0.1192324E-001  0.2384478E+03  0.7546771E-02  0.1120831E+00
         -3   -1    0    0    0  501 -0.00000000000E+00  0.00000000000E+00  0.48079916776E+02  0.48079916776E+02  0.00000000000E+00 0.  1.
         21   -1    0    0  501  502  0.00000000000E+00 -0.00000000000E+00 -0.11920882419E+04  0.11920882419E+04  0.00000000000E+00 0.  1.
         25    1    1    2    0    0 -0.19955207240E+03  0.37567588059E+02 -0.85029995171E+03  0.88310099148E+03  0.12500000000E+03 0.  0.
         -3    1    1    2    0  502  0.19955207240E+03 -0.37567588059E+02 -0.29370837336E+03  0.35706716715E+03  0.00000000000E+00 0.  1.
<mgrwt>
<rscale>  3 0.23844780E+03</rscale>
<asrwt>0</asrwt>
<pdfrwt beam="1">  1       21 0.18339819E+00 0.23844780E+03</pdfrwt>
<pdfrwt beam="2">  1       -3 0.73969105E-02 0.23844780E+03</pdfrwt>
<totfact> 0.10170540E+03</totfact>
</mgrwt>
</event>
<event>
 4    0  0.1002184E-001  0.2410570E+03  0.7546771E-02  0.1119091E+00
         21   -1    0    0  501  502  0.00000000000E+00  0.00000000000E+00  0.32815259792E+03  0.32815259792E+03  0.00000000000E+00 0. -1.
         -2   -1    0    0    0  501 -0.00000000000E+00 -0.00000000000E+00 -0.37135941512E+03  0.37135941512E+03  0.00000000000E+00 0.  1.
         25    1    1    2    0    0 -0.16510264634E+03  0.12338804837E+03  0.24596953135E+03  0.34439730641E+03  0.12500000000E+03 0.  0.
         -2    1    1    2    0  502  0.16510264634E+03 -0.12338804837E+03 -0.28917634855E+03  0.35511470664E+03  0.00000000000E+00 0.  1.
<mgrwt>
<rscale>  3 0.24105704E+03</rscale>
<asrwt>0</asrwt>
<pdfrwt beam="1">  1       21 0.50485015E-01 0.24105704E+03</pdfrwt>
<pdfrwt beam="2">  1       -2 0.57132217E-01 0.24105704E+03</pdfrwt>
<totfact> 0.87421470E+02</totfact>
</mgrwt>
</event>
<event>
 4    0  0.1379656E-001  0.2770753E+03  0.7546771E-02  0.1097297E+00
          2   -1    0    0  502    0 -0.00000000000E+00  0.00000000000E+00  0.45406816359E+03  0.45406816359E+03  0.00000000000E+00 0.  1.
         21   -1    0    0  501  502  0.00000000000E+00 -0.00000000000E+00 -0.23703966466E+03  0.23703966466E+03  0.00000000000E+00 0.  1.
         25    1    1    2    0    0  0.20729271871E+03 -0.13481634949E+03 -0.95062044069E+02  0.29292919203E+03  0.12500000000E+03 0.  0.
          2    1    1    2  501    0 -0.20729271871E+03  0.13481634949E+03  0.31209054300E+03  0.39817863623E+03  0.00000000000E+00 0.  1.
<mgrwt>
<rscale>  3 0.27707530E+03</rscale>
<asrwt>0</asrwt>
<pdfrwt beam="1">  1       21 0.36467641E-01 0.27707530E+03</pdfrwt>
<pdfrwt beam="2">  1        2 0.69856641E-01 0.27707530E+03</pdfrwt>
<totfact> 0.61503373E+03</totfact>
</mgrwt>
</event>
<event>
 4    0  0.1216032E-001  0.3435808E+03  0.7546771E-02  0.1065281E+00
         21   -1    0    0  501  502  0.00000000000E+00  0.00000000000E+00  0.14197696610E+04  0.14197696610E+04  0.00000000000E+00 0. -1.
          4   -1    0    0  502    0 -0.00000000000E+00 -0.00000000000E+00 -0.58165455694E+03  0.58165455694E+03  0.00000000000E+00 0. -1.
         25    1    1    2    0    0 -0.30943955012E+03 -0.81669537463E+02  0.13525817222E+04  0.13955375537E+04  0.12500000000E+03 0.  0.
          4    1    1    2  501    0  0.30943955012E+03  0.81669537463E+02 -0.51446661823E+03  0.60588666416E+03  0.00000000000E+00 0. -1.
<mgrwt>
<rscale>  3 0.34358077E+03</rscale>
<asrwt>0</asrwt>
<pdfrwt beam="1">  1       21 0.21842610E+00 0.34358077E+03</pdfrwt>
<pdfrwt beam="2">  1        4 0.89485317E-01 0.34358077E+03</pdfrwt>
<totfact> 0.43509361E+00</totfact>
</mgrwt>
</event>
<event>
 4    0  0.1448227E-001  0.3151516E+03  0.7546771E-02  0.1077903E+00
          2   -1    0    0  502    0 -0.00000000000E+00  0.00000000000E+00  0.13480914639E+04  0.13480914639E+04  0.00000000000E+00 0. -1.
         21   -1    0    0  501  502  0.00000000000E+00 -0.00000000000E+00 -0.67860692130E+02  0.67860692130E+02  0.00000000000E+00 0. -1.
         25    1    1    2    0    0 -0.81533616580E+01  0.28918693755E+03  0.69525751414E+03  0.76335022966E+03  0.12500000000E+03 0.  0.
          2    1    1    2  501    0  0.81533616580E+01 -0.28918693755E+03  0.58497325760E+03  0.65260192633E+03  0.00000000000E+00 0. -1.
<mgrwt>
<rscale>  3 0.31515165E+03</rscale>
<asrwt>0</asrwt>
<pdfrwt beam="1">  1       21 0.10440108E-01 0.31515165E+03</pdfrwt>
<pdfrwt beam="2">  1        2 0.20739867E+00 0.31515165E+03</pdfrwt>
<totfact> 0.15438003E+04</totfact>
</mgrwt>
</event>
<event>
 4    0  0.1545994E-001  0.2807292E+03  0.7546771E-02  0.1095291E+00
         21   -1    0    0  501  502  0.00000000000E+00  0.00000000000E+00  0.12225893605E+03  0.12225893605E+03  0.00000000000E+00 0.  1.
          1   -1    0    0  502    0 -0.00000000000E+00 -0.00000000000E+00 -0.59549937819E+03  0.59549937819E+03  0.00000000000E+00 0.  1.
         25    1    1    2    0    0  0.87853764572E+02 -0.23551140503E+03 -0.18956268927E+03  0.33873724185E+03  0.12500000000E+03 0.  0.
          1    1    1    2  501    0 -0.87853764572E+02  0.23551140503E+03 -0.28367775286E+03  0.37902107239E+03  0.00000000000E+00 0.  1.
<mgrwt>
<rscale>  3 0.28072924E+03</rscale>
<asrwt>0</asrwt>
<pdfrwt beam="1">  1       21 0.18809067E-01 0.28072924E+03</pdfrwt>
<pdfrwt beam="2">  1        1 0.91615290E-01 0.28072924E+03</pdfrwt>
<totfact> 0.10015322E+04</totfact>
</mgrwt>
</event>
<event>
 4    0  0.1064729E-001  0.4297226E+03  0.7546771E-02  0.1033948E+00
          2   -1    0    0  502    0 -0.00000000000E+00  0.00000000000E+00  0.22227134241E+04  0.22227134241E+04  0.00000000000E+00 0.  1.
         21   -1    0    0  501  502  0.00000000000E+00 -0.00000000000E+00 -0.15070549646E+03  0.15070549646E+03  0.00000000000E+00 0. -1.
         25    1    1    2    0    0 -0.24509474628E+03 -0.33009862662E+03  0.23262555533E+03  0.48864730322E+03  0.12500000000E+03 0.  0.
          2    1    1    2  501    0  0.24509474628E+03  0.33009862662E+03  0.18393823723E+04  0.18847716173E+04  0.00000000000E+00 0.  1.
<mgrwt>
<rscale>  3 0.42972263E+03</rscale>
<asrwt>0</asrwt>
<pdfrwt beam="1">  1       21 0.23185463E-01 0.42972263E+03</pdfrwt>
<pdfrwt beam="2">  1        2 0.34195589E+00 0.42972263E+03</pdfrwt>
<totfact> 0.11553084E+03</totfact>
</mgrwt>
</event>
<event>
 4    0  0.1002184E-001  0.4948901E+03  0.7546771E-02  0.1015121E+00
         21   -1    0    0  501  502  0.00000000000E+00  0.00000000000E+00  0.15929764020E+04  0.15929764020E+04  0.00000000000E+00 0.  1.
          2   -1    0    0  502    0 -0.00000000000E+00 -0.00000000000E+00 -0.62346151760E+03  0.62346151760E+03  0.00000000000E+00 0.  1.
         25    1    1    2    0    0  0.47431031538E+03  0.65733715801E+02  0.14535993622E+04  0.15355348588E+04  0.12500000000E+03 0.  0.
          2    1    1    2  501    0 -0.47431031538E+03 -0.65733715801E+02 -0.48408447778E+03  0.68090306087E+03  0.00000000000E+00 0.  1.
<mgrwt>
<rscale>  3 0.49489009E+03</rscale>
<asrwt>0</asrwt>
<pdfrwt beam="1">  1       21 0.24507329E+00 0.49489009E+03</pdfrwt>
<pdfrwt beam="2">  1        2 0.95917157E-01 0.49489009E+03</pdfrwt>
<totfact> 0.34880972E+01</totfact>
</mgrwt>
</event>
<event>
 4    0  0.1463704E-001  0.2432599E+03  0.7546771E-02  0.1117640E+00
         -2   -1    0    0    0  501 -0.00000000000E+00  0.00000000000E+00  0.24652857691E+04  0.24652857691E+04  0.00000000000E+00 0.  1.
         21   -1    0    0  501  502  0.00000000000E+00 -0.00000000000E+00 -0.16689273835E+03  0.16689273835E+03  0.00000000000E+00 0.  1.
         25    1    1    2    0    0  0.10064663633E+03  0.18281314524E+03 -0.71159404574E+02  0.25345424111E+03  0.12500000000E+03 0.  0.
         -2    1    1    2    0  502 -0.10064663633E+03 -0.18281314524E+03  0.23695524353E+04  0.23787242663E+04  0.00000000000E+00 0.  1.
<mgrwt>
<rscale>  3 0.24325993E+03</rscale>
<asrwt>0</asrwt>
<pdfrwt beam="1">  1       21 0.25675808E-01 0.24325993E+03</pdfrwt>
<pdfrwt beam="2">  1       -2 0.37927471E+00 0.24325993E+03</pdfrwt>
<totfact> 0.14349164E+01</totfact>
</mgrwt>
</event>
<event>
 4    0  0.1172800E-001  0.2366756E+03  0.7546771E-02  0.1122027E+00
         21   -1    0    0  501  502  0.00000000000E+00  0.00000000000E+00  0.18775818371E+02  0.18775818371E+02  0.00000000000E+00 0. -1.
          2   -1    0    0  502    0 -0.00000000000E+00 -0.00000000000E+00 -0.25920275106E+04  0.25920275106E+04  0.00000000000E+00 0. -1.
         25    1    1    2    0    0  0.15665767362E+03  0.12589167900E+03 -0.12248324929E+04  0.12474894698E+04  0.12500000000E+03 0.  0.
          2    1    1    2  501    0 -0.15665767362E+03 -0.12589167900E+03 -0.13484191993E+04  0.13633138592E+04  0.00000000000E+00 0. -1.
<mgrwt>
<rscale>  3 0.23667560E+03</rscale>
<asrwt>0</asrwt>
<pdfrwt beam="1">  1       21 0.28885881E-02 0.23667560E+03</pdfrwt>
<pdfrwt beam="2">  1        2 0.39877338E+00 0.23667560E+03</pdfrwt>
<totfact> 0.31012026E+04</totfact>
</mgrwt>
</event>
<event>
 4    0  0.1002184E-001  0.3063170E+03  0.7546771E-02  0.1082125E+00
         21   -1    0    0  501  502  0.00000000000E+00  0.00000000000E+00  0.61216042872E+02  0.61216042872E+02  0.00000000000E+00 0. -1.
          2   -1    0    0  502    0 -0.00000000000E+00 -0.00000000000E+00 -0.18493904637E+04  0.18493904637E+04  0.00000000000E+00 0.  1.
         25    1    1    2    0    0  0.56876246822E+01 -0.27959394165E+03 -0.45557192742E+03  0.54897714190E+03  0.12500000000E+03 0.  0.
          2    1    1    2  501    0 -0.56876246822E+01  0.27959394165E+03 -0.13326024934E+04  0.13616293647E+04  0.00000000000E+00 0.  1.
<mgrwt>
<rscale>  3 0.30631703E+03</rscale>
<asrwt>0</asrwt>
<pdfrwt beam="1">  1       21 0.94178523E-02 0.30631703E+03</pdfrwt>
<pdfrwt beam="2">  1        2 0.28452162E+00 0.30631703E+03</pdfrwt>
<totfact> 0.10015435E+04</totfact>
</mgrwt>
</event>
<event>
 4    0  0.1593841E-001  0.3231859E+03  0.7546771E-02  0.1074192E+00
         -2   -1    0    0    0  501 -0.00000000000E+00  0.00000000000E+00  0.33106106926E+03  0.33106106926E+03  0.00000000000E+00 0. -1.
         21   -1    0    0  501  502  0.00000000000E+00 -0.00000000000E+00 -0.48985209000E+03  0.48985209000E+03  0.00000000000E+00 0. -1.
         25    1    1    2    0    0  0.12452232154E+03 -0.27077357264E+03 -0.34241980643E+03  0.47085078320E+03  0.12500000000E+03 0.  0.
         -2    1    1    2    0  502 -0.12452232154E+03  0.27077357264E+03  0.18362878570E+03  0.35006237607E+03  0.00000000000E+00 0. -1.
<mgrwt>
<rscale>  3 0.32318592E+03</rscale>
<asrwt>0</asrwt>
<pdfrwt beam="1">  1       21 0.75361860E-01 0.32318592E+03</pdfrwt>
<pdfrwt beam="2">  1       -2 0.50932472E-01 0.32318592E+03</pdfrwt>
<totfact> 0.45021962E+02</totfact>
</mgrwt>
</event>
<event>
 4    0  0.1615063E-001  0.2773867E+03  0.7546771E-02  0.1097125E+00
         21   -1    0    0  501  502  0.00000000000E+00  0.00000000000E+00  0.27147917493E+03  0.27147917493E+03  0.00000000000E+00 0.  1.
          1   -1    0    0  502    0 -0.00000000000E+00 -0.00000000000E+00 -0.74229337981E+03  0.74229337981E+03  0.00000000000E+00 0.  1.
         25    1    1    2    0    0  0.12497585380E+03  0.21377420584E+03  0.17099032892E+03  0.32585436578E+03  0.12500000000E+03 0.  0.
          1    1    1    2  501    0 -0.12497585380E+03 -0.21377420584E+03 -0.64180453379E+03  0.68791818897E+03  0.00000000000E+00 0.  1.
<mgrwt>
<rscale>  3 0.27738669E+03</rscale>
<asrwt>0</asrwt>
<pdfrwt beam="1">  1       21 0.41766027E-01 0.27738669E+03</pdfrwt>
<pdfrwt beam="2">  1        1 0.11419898E+00 0.27738669E+03</pdfrwt>
<totfact> 0.15344895E+03</totfact>
</mgrwt>
</event>
<event>
 4    0  0.1913074E-001  0.2894805E+03  0.7546771E-02  0.1090621E+00
         -1   -1    0    0    0  501 -0.00000000000E+00  0.00000000000E+00  0.97161843538E+03  0.97161843538E+03  0.00000000000E+00 0. -1.
         21   -1    0    0  501  502  0.00000000000E+00 -0.00000000000E+00 -0.78205737689E+02  0.78205737689E+02  0.00000000000E+00 0. -1.
         25    1    1    2    0    0  0.13534088694E+03 -0.22328642077E+03  0.44270917738E+03  0.52895216902E+03  0.12500000000E+03 0.  0.
         -1    1    1    2    0  502 -0.13534088694E+03  0.22328642077E+03  0.45070352032E+03  0.52087200405E+03  0.00000000000E+00 0. -1.
<mgrwt>
<rscale>  3 0.28948054E+03</rscale>
<asrwt>0</asrwt>
<pdfrwt beam="1">  1       21 0.12031653E-01 0.28948054E+03</pdfrwt>
<pdfrwt beam="2">  1       -1 0.14947975E+00 0.28948054E+03</pdfrwt>
<totfact> 0.20562215E+03</totfact>
</mgrwt>
</event>
<event>
 4    0  0.1597243E-001  0.2715304E+03  0.7546771E-02  0.1100407E+00
          2   -1    0    0  502    0 -0.00000000000E+00  0.00000000000E+00  0.10843060705E+04  0.10843060705E+04  0.00000000000E+00 0. -1.
         21   -1    0    0  501  502  0.00000000000E+00 -0.00000000000E+00 -0.26472416088E+03  0.26472416088E+03  0.00000000000E+00 0.  1.
         25    1    1    2    0    0 -0.23844907737E+03 -0.35296024362E+02 -0.17672654057E+03  0.32397691581E+03  0.12500000000E+03 0.  0.
          2    1    1    2  501    0  0.23844907737E+03  0.35296024362E+02  0.99630845020E+03  0.10250533156E+04  0.00000000000E+00 0. -1.
<mgrwt>
<rscale>  3 0.27153043E+03</rscale>
<asrwt>0</asrwt>
<pdfrwt beam="1">  1       21 0.40726795E-01 0.27153043E+03</pdfrwt>
<pdfrwt beam="2">  1        2 0.16681632E+00 0.27153043E+03</pdfrwt>
<totfact> 0.16654747E+03</totfact>
</mgrwt>
</event>
<event>
 4    0  0.1619198E-001  0.2772631E+03  0.7546771E-02  0.1097193E+00
         21   -1    0    0  501  502  0.00000000000E+00  0.00000000000E+00  0.84112353979E+02  0.84112353979E+02  0.00000000000E+00 0. -1.
          2   -1    0    0  502    0 -0.00000000000E+00 -0.00000000000E+00 -0.81896001027E+03  0.81896001027E+03  0.00000000000E+00 0. -1.
         25    1    1    2    0    0  0.24499676859E+03 -0.35020486925E+02 -0.37687145562E+03  0.46787492472E+03  0.12500000000E+03 0.  0.
          2    1    1    2  501    0 -0.24499676859E+03  0.35020486925E+02 -0.35797620067E+03  0.43519743953E+03  0.00000000000E+00 0. -1.
<mgrwt>
<rscale>  3 0.27726314E+03</rscale>
<asrwt>0</asrwt>
<pdfrwt beam="1">  1       21 0.12940362E-01 0.27726314E+03</pdfrwt>
<pdfrwt beam="2">  1        2 0.12599385E+00 0.27726314E+03</pdfrwt>
<totfact> 0.22002579E+04</totfact>
</mgrwt>
</event>
<event>
 4    0  0.1516336E-001  0.2788701E+03  0.7546771E-02  0.1096308E+00
         21   -1    0    0  501  502  0.00000000000E+00  0.00000000000E+00  0.44614494639E+03  0.44614494639E+03  0.00000000000E+00 0. -1.
         -1   -1    0    0    0  501 -0.00000000000E+00 -0.00000000000E+00 -0.21792646818E+03  0.21792646818E+03  0.00000000000E+00 0. -1.
         25    1    1    2    0    0  0.72433519569E+02  0.23853079827E+03  0.29504817712E+03  0.40598273769E+03  0.12500000000E+03 0.  0.
         -1    1    1    2    0  502 -0.72433519569E+02 -0.23853079827E+03 -0.66829698906E+02  0.25808867688E+03  0.00000000000E+00 0. -1.
<mgrwt>
<rscale>  3 0.27887014E+03</rscale>
<asrwt>0</asrwt>
<pdfrwt beam="1">  1       21 0.68637684E-01 0.27887014E+03</pdfrwt>
<pdfrwt beam="2">  1       -1 0.33527149E-01 0.27887014E+03</pdfrwt>
<totfact> 0.14541401E+03</totfact>
</mgrwt>
</event>
<event>
 4    0  0.1002184E-001  0.2536233E+03  0.7546771E-02  0.1111036E+00
         21   -1    0    0  501  502  0.00000000000E+00  0.00000000000E+00  0.77600209577E+03  0.77600209577E+03  0.00000000000E+00 0. -1.
          1   -1    0    0  502    0 -0.00000000000E+00 -0.00000000000E+00 -0.24234186139E+04  0.24234186139E+04  0.00000000000E+00 0. -1.
         25    1    1    2    0    0  0.15909987265E+03  0.15292813204E+03  0.75007525418E+03  0.79179395677E+03  0.12500000000E+03 0.  0.
          1    1    1    2  501    0 -0.15909987265E+03 -0.15292813204E+03 -0.23974917723E+04  0.24076267529E+04  0.00000000000E+00 0. -1.
<mgrwt>
<rscale>  3 0.25362331E+03</rscale>
<asrwt>0</asrwt>
<pdfrwt beam="1">  1       21 0.11938494E+00 0.25362331E+03</pdfrwt>
<pdfrwt beam="2">  1        1 0.37283364E+00 0.25362331E+03</pdfrwt>
<totfact> 0.10257757E+01</totfact>
</mgrwt>
</event>
<event>
 4    0  0.1837584E-001  0.2894859E+03  0.7546771E-02  0.1090618E+00
          1   -1    0    0  502    0 -0.00000000000E+00  0.00000000000E+00  0.13079104197E+04  0.13079104197E+04  0.00000000000E+00 0. -1.
         21   -1    0    0  501  502  0.00000000000E+00 -0.00000000000E+00 -0.37590460361E+03  0.37590460361E+03  0.00000000000E+00 0.  1.
         25    1    1    2    0    0 -0.72550158666E+02  0.25082576853E+03 -0.30443881796E+03  0.42010128012E+03  0.12500000000E+03 0.  0.
          1    1    1    2  501    0  0.72550158666E+02 -0.25082576853E+03  0.12364446340E+04  0.12637137432E+04  0.00000000000E+00 0. -1.
<mgrwt>
<rscale>  3 0.28948591E+03</rscale>
<asrwt>0</asrwt>
<pdfrwt beam="1">  1       21 0.57831478E-01 0.28948591E+03</pdfrwt>
<pdfrwt beam="2">  1        1 0.20121699E+00 0.28948591E+03</pdfrwt>
<totfact> 0.28786609E+02</totfact>
</mgrwt>
</event>
<event>
 4    0  0.1161371E-001  0.2690491E+03  0.7546771E-02  0.1101825E+00
          2   -1    0    0  502    0 -0.00000000000E+00  0.00000000000E+00  0.42252304020E+03  0.42252304020E+03  0.00000000000E+00 0.  1.
         21   -1    0    0  501  502  0.00000000000E+00 -0.00000000000E+00 -0.29581348870E+03  0.29581348870E+03  0.00000000000E+00 0. -1.
         25    1    1    2    0    0  0.23482061164E+03  0.40270082946E+02 -0.18462360728E+03  0.32630242965E+03  0.12500000000E+03 0.  0.
          2    1    1    2  501    0 -0.23482061164E+03 -0.40270082946E+02  0.31133315877E+03  0.39203409926E+03  0.00000000000E+00 0.  1.
<mgrwt>
<rscale>  3 0.26904906E+03</rscale>
<asrwt>0</asrwt>
<pdfrwt beam="1">  1       21 0.45509767E-01 0.26904906E+03</pdfrwt>
<pdfrwt beam="2">  1        2 0.65003545E-01 0.26904906E+03</pdfrwt>
<totfact> 0.42440628E+03</totfact>
</mgrwt>
</event>
<event>
 4    0  0.1598891E-001  0.2602675E+03  0.7546771E-02  0.1106983E+00
          2   -1    0    0  502    0 -0.00000000000E+00  0.00000000000E+00  0.19939852909E+04  0.19939852909E+04  0.00000000000E+00 0.  1.
         21   -1    0    0  501  502  0.00000000000E+00 -0.00000000000E+00 -0.29963896197E+02  0.29963896197E+02  0.00000000000E+00 0.  1.
         25    1    1    2    0    0  0.13287111829E+03  0.18563246630E+03  0.10823796060E+04  0.11132316732E+04  0.12500000000E+03 0.  0.
          2    1    1    2  501    0 -0.13287111829E+03 -0.18563246630E+03  0.88164178869E+03  0.91071751393E+03  0.00000000000E+00 0.  1.
<mgrwt>
<rscale>  3 0.26026745E+03</rscale>
<asrwt>0</asrwt>
<pdfrwt beam="1">  1       21 0.46098318E-02 0.26026745E+03</pdfrwt>
<pdfrwt beam="2">  1        2 0.30676686E+00 0.26026745E+03</pdfrwt>
<totfact> 0.29405322E+04</totfact>
</mgrwt>
</event>
<event>
 4    0  0.1002184E-001  0.3611956E+03  0.7546771E-02  0.1058111E+00
          2   -1    0    0  502    0 -0.00000000000E+00  0.00000000000E+00  0.14391047735E+03  0.14391047735E+03  0.00000000000E+00 0. -1.
         21   -1    0    0  501  502  0.00000000000E+00 -0.00000000000E+00 -0.10466880177E+04  0.10466880177E+04  0.00000000000E+00 0. -1.
         25    1    1    2    0    0  0.18850783338E+03  0.28160619225E+03 -0.72012596970E+03  0.80563246148E+03  0.12500000000E+03 0.  0.
          2    1    1    2  501    0 -0.18850783338E+03 -0.28160619225E+03 -0.18265157069E+03  0.38496603361E+03  0.00000000000E+00 0. -1.
<mgrwt>
<rscale>  3 0.36119559E+03</rscale>
<asrwt>0</asrwt>
<pdfrwt beam="1">  1       21 0.16102892E+00 0.36119559E+03</pdfrwt>
<pdfrwt beam="2">  1        2 0.22140074E-01 0.36119559E+03</pdfrwt>
<totfact> 0.69377685E+02</totfact>
</mgrwt>
</event>
<event>
 4    0  0.1570376E-001  0.2365748E+03  0.7546771E-02  0.1122096E+00
          1   -1    0    0  502    0 -0.00000000000E+00  0.00000000000E+00  0.97702797599E+03  0.97702797599E+03  0.00000000000E+00 0.  1.
         21   -1    0    0  501  502  0.00000000000E+00 -0.00000000000E+00 -0.19526472997E+03  0.19526472997E+03  0.00000000000E+00 0.  1.
         25    1    1    2    0    0 -0.14000828865E+03 -0.14401494981E+03 -0.10805744628E+03  0.26008467535E+03  0.12500000000E+03 0.  0.
          1    1    1    2  501    0  0.14000828865E+03  0.14401494981E+03  0.88982069229E+03  0.91220803060E+03  0.00000000000E+00 0.  1.
<mgrwt>
<rscale>  3 0.23657478E+03</rscale>
<asrwt>0</asrwt>
<pdfrwt beam="1">  1       21 0.30040728E-01 0.23657478E+03</pdfrwt>
<pdfrwt beam="2">  1        1 0.15031199E+00 0.23657478E+03</pdfrwt>
<totfact> 0.19476188E+03</totfact>
</mgrwt>
</event>
<event>
 4    0  0.1575307E-001  0.2443319E+03  0.7546771E-02  0.1116940E+00
          2   -1    0    0  502    0 -0.00000000000E+00  0.00000000000E+00  0.94734572718E+03  0.94734572718E+03  0.00000000000E+00 0. -1.
         21   -1    0    0  501  502  0.00000000000E+00 -0.00000000000E+00 -0.58649430846E+02  0.58649430846E+02  0.00000000000E+00 0. -1.
         25    1    1    2    0    0  0.56217320044E+02 -0.20226890623E+03  0.60970887727E+03  0.65684321761E+03  0.12500000000E+03 0.  0.
          2    1    1    2  501    0 -0.56217320044E+02  0.20226890623E+03  0.27898741906E+03  0.34915194041E+03  0.00000000000E+00 0. -1.
<mgrwt>
<rscale>  3 0.24433194E+03</rscale>
<asrwt>0</asrwt>
<pdfrwt beam="1">  1       21 0.90229900E-02 0.24433194E+03</pdfrwt>
<pdfrwt beam="2">  1        2 0.14574549E+00 0.24433194E+03</pdfrwt>
<totfact> 0.34710821E+04</totfact>
</mgrwt>
</event>
<event>
 4    0  0.1002184E-001  0.2579259E+03  0.7546771E-02  0.1108396E+00
          1   -1    0    0  502    0 -0.00000000000E+00  0.00000000000E+00  0.49235493276E+03  0.49235493276E+03  0.00000000000E+00 0.  1.
         21   -1    0    0  501  502  0.00000000000E+00 -0.00000000000E+00 -0.11959880113E+03  0.11959880113E+03  0.00000000000E+00 0. -1.
         25    1    1    2    0    0 -0.22545919253E+03 -0.83031459029E+01  0.17256760049E+03  0.31033105946E+03  0.12500000000E+03 0.  0.
          1    1    1    2  501    0  0.22545919253E+03  0.83031459029E+01  0.20018853114E+03  0.30162267443E+03  0.00000000000E+00 0.  1.
<mgrwt>
<rscale>  3 0.25792594E+03</rscale>
<asrwt>0</asrwt>
<pdfrwt beam="1">  1       21 0.18399816E-01 0.25792594E+03</pdfrwt>
<pdfrwt beam="2">  1        1 0.75746912E-01 0.25792594E+03</pdfrwt>
<totfact> 0.13567022E+04</totfact>
</mgrwt>
</event>
<event>
 4    0  0.1421429E-001  0.2456888E+03  0.7546771E-02  0.1116060E+00
          2   -1    0    0  502    0 -0.00000000000E+00  0.00000000000E+00  0.79975818016E+03  0.79975818016E+03  0.00000000000E+00 0.  1.
         21   -1    0    0  501  502  0.00000000000E+00 -0.00000000000E+00 -0.90002237720E+02  0.90002237720E+02  0.00000000000E+00 0.  1.
         25    1    1    2    0    0 -0.12022357931E+03  0.17402374557E+03  0.14174271077E+03  0.28364408879E+03  0.12500000000E+03 0.  0.
          2    1    1    2  501    0  0.12022357931E+03 -0.17402374557E+03  0.56801323167E+03  0.60611632909E+03  0.00000000000E+00 0.  1.
<mgrwt>
<rscale>  3 0.24568877E+03</rscale>
<asrwt>0</asrwt>
<pdfrwt beam="1">  1       21 0.13846499E-01 0.24568877E+03</pdfrwt>
<pdfrwt beam="2">  1        2 0.12303972E+00 0.24568877E+03</pdfrwt>
<totfact> 0.20159182E+04</totfact>
</mgrwt>
</event>
<event>
 4    0  0.1002184E-001  0.2684268E+03  0.7546771E-02  0.1102183E+00
          2   -1    0    0  502    0 -0.00000000000E+00  0.00000000000E+00  0.24617820486E+04  0.24617820486E+04  0.00000000000E+00 0.  1.
         21   -1    0    0  501  502  0.00000000000E+00 -0.00000000000E+00 -0.29087528145E+02  0.29087528145E+02  0.00000000000E+00 0. -1.
         25    1    1    2    0    0 -0.19123822726E+03  0.14091098827E+03  0.87749885398E+03  0.91763674998E+03  0.12500000000E+03 0.  0.
          2    1    1    2  501    0  0.19123822726E+03 -0.14091098827E+03  0.15551956665E+04  0.15732328268E+04  0.00000000000E+00 0.  1.
<mgrwt>
<rscale>  3 0.26842684E+03</rscale>
<asrwt>0</asrwt>
<pdfrwt beam="1">  1       21 0.44750063E-02 0.26842684E+03</pdfrwt>
<pdfrwt beam="2">  1        2 0.37873554E+00 0.26842684E+03</pdfrwt>
<totfact> 0.17365000E+04</totfact>
</mgrwt>
</event>
<event>
 4    0  0.1002184E-001  0.3058902E+03  0.7546771E-02  0.1082333E+00
          4   -1    0    0  502    0 -0.00000000000E+00  0.00000000000E+00  0.14826899573E+03  0.14826899573E+03  0.00000000000E+00 0. -1.
         21   -1    0    0  501  502  0.00000000000E+00 -0.00000000000E+00 -0.13598739587E+04  0.13598739587E+04  0.00000000000E+00 0. -1.
         25    1    1    2    0    0  0.25139297601E+03  0.12143056779E+03 -0.11893689737E+04  0.12280746584E+04  0.12500000000E+03 0.  0.
          4    1    1    2  501    0 -0.25139297601E+03 -0.12143056779E+03 -0.22235989265E+02  0.28006829595E+03  0.00000000000E+00 0. -1.
<mgrwt>
<rscale>  3 0.30589019E+03</rscale>
<asrwt>0</asrwt>
<pdfrwt beam="1">  1       21 0.20921138E+00 0.30589019E+03</pdfrwt>
<pdfrwt beam="2">  1        4 0.22810614E-01 0.30589019E+03</pdfrwt>
<totfact> 0.83620729E+01</totfact>
</mgrwt>
</event>
<event>
 4    0  0.1685265E-001  0.4076739E+03  0.7546771E-02  0.1041154E+00
         -1   -1    0    0    0  501 -0.00000000000E+00  0.00000000000E+00  0.88161841520E+03  0.88161841520E+03  0.00000000000E+00 0.  1.
         21   -1    0    0  501  502  0.00000000000E+00 -0.00000000000E+00 -0.18633562340E+03  0.18633562340E+03  0.00000000000E+00 0.  1.
         25    1    1    2    0    0 -0.35927894873E+03  0.14660035717E+03  0.25399231905E+03  0.48032293914E+03  0.12500000000E+03 0.  0.
         -1    1    1    2    0  502  0.35927894873E+03 -0.14660035717E+03  0.44129047274E+03  0.58763109946E+03  0.00000000000E+00 0.  1.
<mgrwt>
<rscale>  3 0.40767392E+03</rscale>
<asrwt>0</asrwt>
<pdfrwt beam="1">  1       21 0.28667020E-01 0.40767392E+03</pdfrwt>
<pdfrwt beam="2">  1       -1 0.13563360E+00 0.40767392E+03</pdfrwt>
<totfact> 0.50170016E+02</totfact>
</mgrwt>
</event>
<event>
 4    0  0.1290213E-001  0.2421802E+03  0.7546771E-02  0.1118349E+00
         21   -1    0    0  501  502  0.00000000000E+00  0.00000000000E+00  0.78876901204E+02  0.78876901204E+02  0.00000000000E+00 0.  1.
          2   -1    0    0  502    0 -0.00000000000E+00 -0.00000000000E+00 -0.13289051253E+04  0.13289051253E+04  0.00000000000E+00 0. -1.
         25    1    1    2    0    0 -0.74095989000E+02  0.19374214462E+03 -0.14249362807E+03  0.28099051270E+03  0.12500000000E+03 0.  0.
          2    1    1    2  501    0  0.74095989000E+02 -0.19374214462E+03 -0.11075345960E+04  0.11267915138E+04  0.00000000000E+00 0. -1.
<mgrwt>
<rscale>  3 0.24218017E+03</rscale>
<asrwt>0</asrwt>
<pdfrwt beam="1">  1       21 0.12134908E-01 0.24218017E+03</pdfrwt>
<pdfrwt beam="2">  1        2 0.20444694E+00 0.24218017E+03</pdfrwt>
<totfact> 0.12281122E+04</totfact>
</mgrwt>
</event>
<event>
 4    0  0.1076019E-001  0.2844647E+03  0.7546771E-02  0.1093275E+00
         21   -1    0    0  501  502  0.00000000000E+00  0.00000000000E+00  0.46456446514E+02  0.46456446514E+02  0.00000000000E+00 0.  1.
          2   -1    0    0  502    0 -0.00000000000E+00 -0.00000000000E+00 -0.30390891864E+04  0.30390891864E+04  0.00000000000E+00 0.  1.
         25    1    1    2    0    0  0.16357212487E+03  0.19631441061E+03 -0.26098615139E+04  0.26253185159E+04  0.12500000000E+03 0.  0.
          2    1    1    2  501    0 -0.16357212487E+03 -0.19631441061E+03 -0.38277122595E+03  0.46022711705E+03  0.00000000000E+00 0.  1.
<mgrwt>
<rscale>  3 0.28446474E+03</rscale>
<asrwt>0</asrwt>
<pdfrwt beam="1">  1       21 0.71471485E-02 0.28446474E+03</pdfrwt>
<pdfrwt beam="2">  1        2 0.46755199E+00 0.28446474E+03</pdfrwt>
<totfact> 0.36185643E+03</totfact>
</mgrwt>
</event>
<event>
 4    0  0.1002184E-001  0.2540134E+03  0.7546771E-02  0.1110794E+00
         21   -1    0    0  501  502  0.00000000000E+00  0.00000000000E+00  0.13261924387E+04  0.13261924387E+04  0.00000000000E+00 0. -1.
          2   -1    0    0  502    0 -0.00000000000E+00 -0.00000000000E+00 -0.63921261124E+02  0.63921261124E+02  0.00000000000E+00 0.  1.
         25    1    1    2    0    0 -0.15123250707E+03  0.16132746031E+03  0.10613975994E+04  0.10913696370E+04  0.12500000000E+03 0.  0.
          2    1    1    2  501    0  0.15123250707E+03 -0.16132746031E+03  0.20087357823E+03  0.29874406283E+03  0.00000000000E+00 0.  1.
<mgrwt>
<rscale>  3 0.25401343E+03</rscale>
<asrwt>0</asrwt>
<pdfrwt beam="1">  1       21 0.20402959E+00 0.25401343E+03</pdfrwt>
<pdfrwt beam="2">  1        2 0.98340411E-02 0.25401343E+03</pdfrwt>
<totfact> 0.96721423E+02</totfact>
</mgrwt>
</event>
<event>
 4    0  0.1002184E-001  0.3011552E+03  0.7546771E-02  0.1084665E+00
          2   -1    0    0  502    0 -0.00000000000E+00  0.00000000000E+00  0.11890639191E+03  0.11890639191E+03  0.00000000000E+00 0. -1.
         21   -1    0    0  501  502  0.00000000000E+00 -0.00000000000E+00 -0.97734096180E+03  0.97734096180E+03  0.00000000000E+00 0.  1.
         25    1    1    2    0    0 -0.14452198211E+03 -0.23277215411E+03 -0.73776493234E+03  0.79686358583E+03  0.12500000000E+03 0.  0.
          2    1    1    2  501    0  0.14452198211E+03  0.23277215411E+03 -0.12066963756E+03  0.29938376788E+03  0.00000000000E+00 0. -1.
<mgrwt>
<rscale>  3 0.30115524E+03</rscale>
<asrwt>0</asrwt>
<pdfrwt beam="1">  1       21 0.15036014E+00 0.30115524E+03</pdfrwt>
<pdfrwt beam="2">  1        2 0.18293292E-01 0.30115524E+03</pdfrwt>
<totfact> 0.10646885E+03</totfact>
</mgrwt>
</event>
<event>
 4    0  0.1203209E-001  0.3079672E+03  0.7546771E-02  0.1081324E+00
         21   -1    0    0  501  502  0.00000000000E+00  0.00000000000E+00  0.52725070669E+03  0.52725070669E+03  0.00000000000E+00 0.  1.
          2   -1    0    0  502    0 -0.00000000000E+00 -0.00000000000E+00 -0.18402765722E+03  0.18402765722E+03  0.00000000000E+00 0.  1.
         25    1    1    2    0    0 -0.28052271996E+03  0.22929834075E+02  0.63468692678E+02  0.31443926068E+03  0.12500000000E+03 0.  0.
          2    1    1    2  501    0  0.28052271996E+03 -0.22929834075E+02  0.27975435679E+03  0.39683910323E+03  0.00000000000E+00 0.  1.
<mgrwt>
<rscale>  3 0.30796716E+03</rscale>
<asrwt>0</asrwt>
<pdfrwt beam="1">  1       21 0.81115493E-01 0.30796716E+03</pdfrwt>
<pdfrwt beam="2">  1        2 0.28311948E-01 0.30796716E+03</pdfrwt>
<totfact> 0.29622600E+03</totfact>
</mgrwt>
</event>
<event>
 4    0  0.1368698E-001  0.2576939E+03  0.7546771E-02  0.1108537E+00
          2   -1    0    0  502    0 -0.00000000000E+00  0.00000000000E+00  0.24178564685E+03  0.24178564685E+03  0.00000000000E+00 0.  1.
         21   -1    0    0  501  502  0.00000000000E+00 -0.00000000000E+00 -0.24988574253E+03  0.24988574253E+03  0.00000000000E+00 0.  1.
         25    1    1    2    0    0  0.14796477931E+03 -0.16996346344E+03 -0.49899673665E+02  0.26248072739E+03  0.12500000000E+03 0.  0.
          2    1    1    2  501    0 -0.14796477931E+03  0.16996346344E+03  0.41799577983E+02  0.22919066198E+03  0.00000000000E+00 0.  1.
<mgrwt>
<rscale>  3 0.25769392E+03</rscale>
<asrwt>0</asrwt>
<pdfrwt beam="1">  1       21 0.38443960E-01 0.25769392E+03</pdfrwt>
<pdfrwt beam="2">  1        2 0.37197792E-01 0.25769392E+03</pdfrwt>
<totfact> 0.11019330E+04</totfact>
</mgrwt>
</event>
<event>
 4    0  0.1223885E-001  0.3097831E+03  0.7546771E-02  0.1080450E+00
          3   -1    0    0  502    0 -0.00000000000E+00  0.00000000000E+00  0.26158926840E+03  0.26158926840E+03  0.00000000000E+00 0. -1.
         21   -1    0    0  501  502  0.00000000000E+00 -0.00000000000E+00 -0.44520266351E+03  0.44520266351E+03  0.00000000000E+00 0. -1.
         25    1    1    2    0    0  0.26336621711E+03  0.10477972845E+03  0.79745972616E+02  0.31988275346E+03  0.12500000000E+03 0.  0.
          3    1    1    2  501    0 -0.26336621711E+03 -0.10477972845E+03 -0.26335936772E+03  0.38690917846E+03  0.00000000000E+00 0. -1.
<mgrwt>
<rscale>  3 0.30978308E+03</rscale>
<asrwt>0</asrwt>
<pdfrwt beam="1">  1       21 0.68492716E-01 0.30978308E+03</pdfrwt>
<pdfrwt beam="2">  1        3 0.40244504E-01 0.30978308E+03</pdfrwt>
<totfact> 0.57732912E+02</totfact>
</mgrwt>
</event>
<event>
 4    0  0.1408718E-001  0.3876085E+03  0.7546771E-02  0.1048157E+00
          2   -1    0    0  502    0 -0.00000000000E+00  0.00000000000E+00  0.12920207095E+04  0.12920207095E+04  0.00000000000E+00 0.  1.
         21   -1    0    0  501  502  0.00000000000E+00 -0.00000000000E+00 -0.24149431981E+03  0.24149431981E+03  0.00000000000E+00 0. -1.
         25    1    1    2    0    0 -0.36601154452E+03  0.25513122161E+02 -0.33526900034E+02  0.38905580982E+03  0.12500000000E+03 0.  0.
          2    1    1    2  501    0  0.36601154452E+03 -0.25513122161E+02  0.10840532897E+04  0.11444592195E+04  0.00000000000E+00 0.  1.
<mgrwt>
<rscale>  3 0.38760853E+03</rscale>
<asrwt>0</asrwt>
<pdfrwt beam="1">  1       21 0.37152973E-01 0.38760853E+03</pdfrwt>
<pdfrwt beam="2">  1        2 0.19877241E+00 0.38760853E+03</pdfrwt>
<totfact> 0.14658514E+03</totfact>
</mgrwt>
</event>
<event>
 4    0  0.1002184E-001  0.2898832E+03  0.7546771E-02  0.1090410E+00
         21   -1    0    0  501  502  0.00000000000E+00  0.00000000000E+00  0.49956206337E+02  0.49956206337E+02  0.00000000000E+00 0. -1.
          1   -1    0    0  502    0 -0.00000000000E+00 -0.00000000000E+00 -0.16872209065E+04  0.16872209065E+04  0.00000000000E+00 0.  1.
         25    1    1    2    0    0  0.15274298650E+03  0.21231315427E+03 -0.58485369134E+03  0.65275273701E+03  0.12500000000E+03 0.  0.
          1    1    1    2  501    0 -0.15274298650E+03 -0.21231315427E+03 -0.10524110088E+04  0.10844243758E+04  0.00000000000E+00 0.  1.
<mgrwt>
<rscale>  3 0.28988324E+03</rscale>
<asrwt>0</asrwt>
<pdfrwt beam="1">  1       21 0.76855720E-02 0.28988324E+03</pdfrwt>
<pdfrwt beam="2">  1        1 0.25957239E+00 0.28988324E+03</pdfrwt>
<totfact> 0.76502019E+03</totfact>
</mgrwt>
</event>
<event>
 4    0  0.1104126E-001  0.3017087E+03  0.7546771E-02  0.1084390E+00
          1   -1    0    0  502    0 -0.00000000000E+00  0.00000000000E+00  0.14186176342E+04  0.14186176342E+04  0.00000000000E+00 0.  1.
         21   -1    0    0  501  502  0.00000000000E+00 -0.00000000000E+00 -0.84721056504E+02  0.84721056504E+02  0.00000000000E+00 0. -1.
         25    1    1    2    0    0  0.63550918019E+02  0.26714124386E+03  0.27101192168E+03  0.40555594564E+03  0.12500000000E+03 0.  0.
          1    1    1    2  501    0 -0.63550918019E+02 -0.26714124386E+03  0.10628846560E+04  0.10977827450E+04  0.00000000000E+00 0.  1.
<mgrwt>
<rscale>  3 0.30170874E+03</rscale>
<asrwt>0</asrwt>
<pdfrwt beam="1">  1       21 0.13034010E-01 0.30170874E+03</pdfrwt>
<pdfrwt beam="2">  1        1 0.21824885E+00 0.30170874E+03</pdfrwt>
<totfact> 0.44773164E+03</totfact>
</mgrwt>
</event>
<event>
 4    0  0.1002184E-001  0.2969693E+03  0.7546771E-02  0.1086766E+00
         21   -1    0    0  501  502  0.00000000000E+00  0.00000000000E+00  0.25868426522E+04  0.25868426522E+04  0.00000000000E+00 0. -1.
          1   -1    0    0  502    0 -0.00000000000E+00 -0.00000000000E+00 -0.30105597100E+03  0.30105597100E+03  0.00000000000E+00 0. -1.
         25    1    1    2    0    0  0.32719207508E+01 -0.26936041094E+03  0.25160506941E+04  0.25335157058E+04  0.12500000000E+03 0.  0.
          1    1    1    2  501    0 -0.32719207508E+01  0.26936041094E+03 -0.23026401293E+03  0.35438291733E+03  0.00000000000E+00 0. -1.
<mgrwt>
<rscale>  3 0.29696925E+03</rscale>
<asrwt>0</asrwt>
<pdfrwt beam="1">  1       21 0.39797578E+00 0.29696925E+03</pdfrwt>
<pdfrwt beam="2">  1        1 0.46316305E-01 0.29696925E+03</pdfrwt>
<totfact> 0.74639001E+00</totfact>
</mgrwt>
</event>
<event>
 4    0  0.1002184E-001  0.4401744E+03  0.7546771E-02  0.1030693E+00
         21   -1    0    0  501  502  0.00000000000E+00  0.00000000000E+00  0.15839835833E+04  0.15839835833E+04  0.00000000000E+00 0.  1.
          2   -1    0    0  502    0 -0.00000000000E+00 -0.00000000000E+00 -0.20906778955E+03  0.20906778955E+03  0.00000000000E+00 0.  1.
         25    1    1    2    0    0 -0.20117052255E+03  0.37102419141E+03  0.12893452131E+04  0.13624113212E+04  0.12500000000E+03 0.  0.
          2    1    1    2  501    0  0.20117052255E+03 -0.37102419141E+03  0.85570580647E+02  0.43064005158E+03  0.00000000000E+00 0.  1.
<mgrwt>
<rscale>  3 0.44017443E+03</rscale>
<asrwt>0</asrwt>
<pdfrwt beam="1">  1       21 0.24368977E+00 0.44017443E+03</pdfrwt>
<pdfrwt beam="2">  1        2 0.32164276E-01 0.44017443E+03</pdfrwt>
<totfact> 0.12411423E+02</totfact>
</mgrwt>
</event>
<event>
 4    0  0.1002184E-001  0.2627751E+03  0.7546771E-02  0.1105487E+00
         21   -1    0    0  501  502  0.00000000000E+00  0.00000000000E+00  0.43214009623E+02  0.43214009623E+02  0.00000000000E+00 0. -1.
         -1   -1    0    0    0  501 -0.00000000000E+00 -0.00000000000E+00 -0.18538871871E+04  0.18538871871E+04  0.00000000000E+00 0.  1.
         25    1    1    2    0    0  0.23022069075E+03 -0.20595588681E+02 -0.48673892408E+03  0.55314150535E+03  0.12500000000E+03 0.  0.
         -1    1    1    2    0  502 -0.23022069075E+03  0.20595588681E+02 -0.13239342534E+04  0.13439596913E+04  0.00000000000E+00 0.  1.
<mgrwt>
<rscale>  3 0.26277508E+03</rscale>
<asrwt>0</asrwt>
<pdfrwt beam="1">  1       21 0.66483107E-02 0.26277508E+03</pdfrwt>
<pdfrwt beam="2">  1       -1 0.28521335E+00 0.26277508E+03</pdfrwt>
<totfact> 0.73974644E+02</totfact>
</mgrwt>
</event>
<event>
 4    0  0.1754981E-001  0.3008951E+03  0.7546771E-02  0.1084794E+00
         -1   -1    0    0    0  501 -0.00000000000E+00  0.00000000000E+00  0.82780597016E+03  0.82780597016E+03  0.00000000000E+00 0. -1.
         21   -1    0    0  501  502  0.00000000000E+00 -0.00000000000E+00 -0.11447034082E+03  0.11447034082E+03  0.00000000000E+00 0. -1.
         25    1    1    2    0    0  0.27035702928E+03 -0.42660554593E+02  0.20235507133E+03  0.36260918506E+03  0.12500000000E+03 0.  0.
         -1    1    1    2    0  502 -0.27035702928E+03  0.42660554593E+02  0.51098055801E+03  0.57966712591E+03  0.00000000000E+00 0. -1.
<mgrwt>
<rscale>  3 0.30089508E+03</rscale>
<asrwt>0</asrwt>
<pdfrwt beam="1">  1       21 0.17610822E-01 0.30089508E+03</pdfrwt>
<pdfrwt beam="2">  1       -1 0.12735476E+00 0.30089508E+03</pdfrwt>
<totfact> 0.15307308E+03</totfact>
</mgrwt>
</event>
<event>
 4    0  0.1337228E-001  0.2388240E+03  0.7546771E-02  0.1120579E+00
         21   -1    0    0  501  502  0.00000000000E+00  0.00000000000E+00  0.14482466439E+03  0.14482466439E+03  0.00000000000E+00 0.  1.
          2   -1    0    0  502    0 -0.00000000000E+00 -0.00000000000E+00 -0.46008508017E+03  0.46008508017E+03  0.00000000000E+00 0.  1.
         25    1    1    2    0    0  0.17004673130E+03 -0.11178547598E+03 -0.11266110374E+02  0.23908954120E+03  0.12500000000E+03 0.  0.
          2    1    1    2  501    0 -0.17004673130E+03  0.11178547598E+03 -0.30399430541E+03  0.36582020336E+03  0.00000000000E+00 0.  1.
<mgrwt>
<rscale>  3 0.23882396E+03</rscale>
<asrwt>0</asrwt>
<pdfrwt beam="1">  1       21 0.22280717E-01 0.23882396E+03</pdfrwt>
<pdfrwt beam="2">  1        2 0.70782321E-01 0.23882396E+03</pdfrwt>
<totfact> 0.15976216E+04</totfact>
</mgrwt>
</event>
<event>
 4    0  0.1266946E-001  0.2652043E+03  0.7546771E-02  0.1104056E+00
         21   -1    0    0  501  502  0.00000000000E+00  0.00000000000E+00  0.14033121343E+04  0.14033121343E+04  0.00000000000E+00 0.  1.
         -3   -1    0    0    0  501 -0.00000000000E+00 -0.00000000000E+00 -0.19169597615E+03  0.19169597615E+03  0.00000000000E+00 0.  1.
         25    1    1    2    0    0 -0.23021361070E+03  0.41352072446E+02  0.13134112657E+04  0.13399188234E+04  0.12500000000E+03 0.  0.
         -3    1    1    2    0  502  0.23021361070E+03 -0.41352072446E+02 -0.10179510755E+03  0.25508928705E+03  0.00000000000E+00 0.  1.
<mgrwt>
<rscale>  3 0.26520426E+03</rscale>
<asrwt>0</asrwt>
<pdfrwt beam="1">  1       21 0.21589417E+00 0.26520426E+03</pdfrwt>
<pdfrwt beam="2">  1       -3 0.29491690E-01 0.26520426E+03</pdfrwt>
<totfact> 0.55872957E+01</totfact>
</mgrwt>
</event>
<event>
 4    0  0.1654732E-001  0.2429618E+03  0.7546771E-02  0.1117835E+00
         -2   -1    0    0    0  501 -0.00000000000E+00  0.00000000000E+00  0.45877658850E+03  0.45877658850E+03  0.00000000000E+00 0. -1.
         21   -1    0    0  501  502  0.00000000000E+00 -0.00000000000E+00 -0.15607948613E+03  0.15607948613E+03  0.00000000000E+00 0. -1.
         25    1    1    2    0    0 -0.41551560340E+00 -0.20833935366E+03 -0.52915448718E+01  0.24301946297E+03  0.12500000000E+03 0.  0.
         -2    1    1    2    0  502  0.41551560340E+00  0.20833935366E+03  0.30798864725E+03  0.37183661166E+03  0.00000000000E+00 0. -1.
<mgrwt>
<rscale>  3 0.24296185E+03</rscale>
<asrwt>0</asrwt>
<pdfrwt beam="1">  1       21 0.24012229E-01 0.24296185E+03</pdfrwt>
<pdfrwt beam="2">  1       -2 0.70581013E-01 0.24296185E+03</pdfrwt>
<totfact> 0.24750203E+03</totfact>
</mgrwt>
</event>
<event>
 4    0  0.1002184E-001  0.2635348E+03  0.7546771E-02  0.1105038E+00
         21   -1    0    0  501  502  0.00000000000E+00  0.00000000000E+00  0.16400399932E+04  0.16400399932E+04  0.00000000000E+00 0. -1.
         -2   -1    0    0    0  501 -0.00000000000E+00 -0.00000000000E+00 -0.44957553212E+02  0.44957553212E+02  0.00000000000E+00 0. -1.
         25    1    1    2    0    0 -0.21306400754E+03  0.91811320789E+02  0.11839155011E+04  0.12128917939E+04  0.12500000000E+03 0.  0.
         -2    1    1    2    0  502  0.21306400754E+03 -0.91811320789E+02  0.41116693891E+03  0.47210575254E+03  0.00000000000E+00 0. -1.
<mgrwt>
<rscale>  3 0.26353480E+03</rscale>
<asrwt>0</asrwt>
<pdfrwt beam="1">  1       21 0.25231380E+00 0.26353480E+03</pdfrwt>
<pdfrwt beam="2">  1       -2 0.69165479E-02 0.26353480E+03</pdfrwt>
<totfact> 0.57037660E+02</totfact>
</mgrwt>
</event>
<event>
 4    0  0.1367204E-001  0.2655896E+03  0.7546771E-02  0.1103831E+00
         21   -1    0    0  501  502  0.00000000000E+00  0.00000000000E+00  0.68707406560E+03  0.68707406560E+03  0.00000000000E+00 0. -1.
          1   -1    0    0  502    0 -0.00000000000E+00 -0.00000000000E+00 -0.49726283176E+03  0.49726283176E+03  0.00000000000E+00 0. -1.
         25    1    1    2    0    0 -0.13727017853E+02 -0.23393252393E+03  0.63108912589E+03  0.68469799297E+03  0.12500000000E+03 0.  0.
          1    1    1    2  501    0  0.13727017853E+02  0.23393252393E+03 -0.44127789204E+03  0.49963890439E+03  0.00000000000E+00 0. -1.
<mgrwt>
<rscale>  3 0.26558964E+03</rscale>
<asrwt>0</asrwt>
<pdfrwt beam="1">  1       21 0.10570370E+00 0.26558964E+03</pdfrwt>
<pdfrwt beam="2">  1        1 0.76501974E-01 0.26558964E+03</pdfrwt>
<totfact> 0.34631804E+02</totfact>
</mgrwt>
</event>
<event>
 4    0  0.1345736E-001  0.2452457E+03  0.7546771E-02  0.1116347E+00
         21   -1    0    0  501  502  0.00000000000E+00  0.00000000000E+00  0.62020246155E+03  0.62020246155E+03  0.00000000000E+00 0. -1.
         -2   -1    0    0    0  501 -0.00000000000E+00 -0.00000000000E+00 -0.19108301761E+03  0.19108301761E+03  0.00000000000E+00 0. -1.
         25    1    1    2    0    0 -0.10567237569E+03 -0.18263028823E+03  0.52505044684E+03  0.57950275659E+03  0.12500000000E+03 0.  0.
         -2    1    1    2    0  502  0.10567237569E+03  0.18263028823E+03 -0.95931002906E+02  0.23178272257E+03  0.00000000000E+00 0. -1.
<mgrwt>
<rscale>  3 0.24524574E+03</rscale>
<asrwt>0</asrwt>
<pdfrwt beam="1">  1       21 0.95415762E-01 0.24524574E+03</pdfrwt>
<pdfrwt beam="2">  1       -2 0.29397388E-01 0.24524574E+03</pdfrwt>
<totfact> 0.76424976E+02</totfact>
</mgrwt>
</event>
<event>
 4    0  0.1193207E-001  0.2624794E+03  0.7546771E-02  0.1105663E+00
          2   -1    0    0  502    0 -0.00000000000E+00  0.00000000000E+00  0.27414090923E+04  0.27414090923E+04  0.00000000000E+00 0.  1.
         21   -1    0    0  501  502  0.00000000000E+00 -0.00000000000E+00 -0.82672297082E+02  0.82672297082E+02  0.00000000000E+00 0.  1.
         25    1    1    2    0    0  0.22256656798E+03 -0.61111002026E+02  0.14518825252E+03  0.29995843115E+03  0.12500000000E+03 0.  0.
          2    1    1    2  501    0 -0.22256656798E+03  0.61111002026E+02  0.25135485427E+04  0.25241229582E+04  0.00000000000E+00 0.  1.
<mgrwt>
<rscale>  3 0.26247939E+03</rscale>
<asrwt>0</asrwt>
<pdfrwt beam="1">  1       21 0.12718817E-01 0.26247939E+03</pdfrwt>
<pdfrwt beam="2">  1        2 0.42175517E+00 0.26247939E+03</pdfrwt>
<totfact> 0.19582182E+03</totfact>
</mgrwt>
</event>
<event>
 4    0  0.1002184E-001  0.3308220E+03  0.7546771E-02  0.1070774E+00
          3   -1    0    0  502    0 -0.00000000000E+00  0.00000000000E+00  0.46762133254E+02  0.46762133254E+02  0.00000000000E+00 0. -1.
         21   -1    0    0  501  502  0.00000000000E+00 -0.00000000000E+00 -0.22303877706E+04  0.22303877706E+04  0.00000000000E+00 0. -1.
         25    1    1    2    0    0  0.26408107356E+03  0.15517525362E+03 -0.13197009489E+04  0.13605343683E+04  0.12500000000E+03 0.  0.
          3    1    1    2  501    0 -0.26408107356E+03 -0.15517525362E+03 -0.86392468846E+03  0.91661553559E+03  0.00000000000E+00 0. -1.
<mgrwt>
<rscale>  3 0.33082197E+03</rscale>
<asrwt>0</asrwt>
<pdfrwt beam="1">  1       21 0.34313658E+00 0.33082197E+03</pdfrwt>
<pdfrwt beam="2">  1        3 0.71941743E-02 0.33082197E+03</pdfrwt>
<totfact> 0.10899423E+02</totfact>
</mgrwt>
</event>
<event>
 4    0  0.1463075E-001  0.3032139E+03  0.7546771E-02  0.1083645E+00
         21   -1    0    0  501  502  0.00000000000E+00  0.00000000000E+00  0.33820002536E+03  0.33820002536E+03  0.00000000000E+00 0.  1.
          4   -1    0    0  502    0 -0.00000000000E+00 -0.00000000000E+00 -0.76885155048E+03  0.76885155048E+03  0.00000000000E+00 0.  1.
         25    1    1    2    0    0 -0.24559657432E+03 -0.12647535518E+03  0.23677805296E+03  0.38471098132E+03  0.12500000000E+03 0.  0.
          4    1    1    2  501    0  0.24559657432E+03  0.12647535518E+03 -0.66742957808E+03  0.72234059452E+03  0.00000000000E+00 0.  1.
<mgrwt>
<rscale>  3 0.30321394E+03</rscale>
<asrwt>0</asrwt>
<pdfrwt beam="1">  1       21 0.52030773E-01 0.30321394E+03</pdfrwt>
<pdfrwt beam="2">  1        4 0.11828485E+00 0.30321394E+03</pdfrwt>
<totfact> 0.82502944E+01</totfact>
</mgrwt>
</event>
<event>
 4    0  0.1002184E-001  0.2919169E+03  0.7546771E-02  0.1089353E+00
          1   -1    0    0  502    0 -0.00000000000E+00  0.00000000000E+00  0.18770267477E+03  0.18770267477E+03  0.00000000000E+00 0. -1.
         21   -1    0    0  501  502  0.00000000000E+00 -0.00000000000E+00 -0.60206945156E+03  0.60206945156E+03  0.00000000000E+00 0.  1.
         25    1    1    2    0    0  0.24825362549E+03  0.89222403087E+02 -0.43642155141E+03  0.52505168347E+03  0.12500000000E+03 0.  0.
          1    1    1    2  501    0 -0.24825362549E+03 -0.89222403087E+02  0.22054774622E+02  0.26472044285E+03  0.00000000000E+00 0. -1.
<mgrwt>
<rscale>  3 0.29191694E+03</rscale>
<asrwt>0</asrwt>
<pdfrwt beam="1">  1       21 0.92626070E-01 0.29191694E+03</pdfrwt>
<pdfrwt beam="2">  1        1 0.28877335E-01 0.29191694E+03</pdfrwt>
<totfact> 0.16327331E+03</totfact>
</mgrwt>
</event>
<event>
 4    0  0.1017784E-001  0.3564310E+03  0.7546771E-02  0.1060006E+00
         -2   -1    0    0    0  501 -0.00000000000E+00  0.00000000000E+00  0.97780456110E+02  0.97780456110E+02  0.00000000000E+00 0.  1.
         21   -1    0    0  501  502  0.00000000000E+00 -0.00000000000E+00 -0.14069371582E+04  0.14069371582E+04  0.00000000000E+00 0.  1.
         25    1    1    2    0    0 -0.65569958311E+02 -0.32728982115E+03 -0.94869888021E+03  0.10134459096E+04  0.12500000000E+03 0.  0.
         -2    1    1    2    0  502  0.65569958311E+02  0.32728982115E+03 -0.36045782191E+03  0.49127170470E+03  0.00000000000E+00 0.  1.
<mgrwt>
<rscale>  3 0.35643098E+03</rscale>
<asrwt>0</asrwt>
<pdfrwt beam="1">  1       21 0.21645187E+00 0.35643098E+03</pdfrwt>
<pdfrwt beam="2">  1       -2 0.15043147E-01 0.35643098E+03</pdfrwt>
<totfact> 0.26049560E+02</totfact>
</mgrwt>
</event>
<event>
 4    0  0.1013779E-001  0.2466848E+03  0.7546771E-02  0.1115418E+00
          1   -1    0    0  502    0 -0.00000000000E+00  0.00000000000E+00  0.40142638485E+04  0.40142638485E+04  0.00000000000E+00 0. -1.
         21   -1    0    0  501  502  0.00000000000E+00 -0.00000000000E+00 -0.17459934798E+02  0.17459934798E+02  0.00000000000E+00 0. -1.
         25    1    1    2    0    0  0.10388925980E+03  0.18556787574E+03  0.31103016079E+04  0.31200688304E+04  0.12500000000E+03 0.  0.
          1    1    1    2  501    0 -0.10388925980E+03 -0.18556787574E+03  0.88650230579E+03  0.91165495281E+03  0.00000000000E+00 0. -1.
<mgrwt>
<rscale>  3 0.24668485E+03</rscale>
<asrwt>0</asrwt>
<pdfrwt beam="1">  1       21 0.26861470E-02 0.24668485E+03</pdfrwt>
<pdfrwt beam="2">  1        1 0.61757832E+00 0.24668485E+03</pdfrwt>
<totfact> 0.10550866E+03</totfact>
</mgrwt>
</event>
<event>
 4    0  0.1635803E-001  0.2562626E+03  0.7546771E-02  0.1109410E+00
         21   -1    0    0  501  502  0.00000000000E+00  0.00000000000E+00  0.51238681181E+02  0.51238681181E+02  0.00000000000E+00 0. -1.
          2   -1    0    0  502    0 -0.00000000000E+00 -0.00000000000E+00 -0.11326366995E+04  0.11326366995E+04  0.00000000000E+00 0. -1.
         25    1    1    2    0    0 -0.20889685451E+03 -0.80047666308E+02 -0.52556810166E+03  0.58471561822E+03  0.12500000000E+03 0.  0.
          2    1    1    2  501    0  0.20889685451E+03  0.80047666308E+02 -0.55582991668E+03  0.59915976248E+03  0.00000000000E+00 0. -1.
<mgrwt>
<rscale>  3 0.25626261E+03</rscale>
<asrwt>0</asrwt>
<pdfrwt beam="1">  1       21 0.78828753E-02 0.25626261E+03</pdfrwt>
<pdfrwt beam="2">  1        2 0.17425177E+00 0.25626261E+03</pdfrwt>
<totfact> 0.33965779E+04</totfact>
</mgrwt>
</event>
<event>
 4    0  0.1448327E-001  0.3416191E+03  0.7546771E-02  0.1066108E+00
         21   -1    0    0  501  502  0.00000000000E+00  0.00000000000E+00  0.23929070926E+03  0.23929070926E+03  0.00000000000E+00 0. -1.
         -1   -1    0    0    0  501 -0.00000000000E+00 -0.00000000000E+00 -0.16298458854E+04  0.16298458854E+04  0.00000000000E+00 0.  1.
         25    1    1    2    0    0 -0.21584890490E+03  0.23342629689E+03  0.91260159155E+02  0.35359864603E+03  0.12500000000E+03 0.  0.
         -1    1    1    2    0  502  0.21584890490E+03 -0.23342629689E+03 -0.14818153353E+04  0.15155379487E+04  0.00000000000E+00 0.  1.
<mgrwt>
<rscale>  3 0.34161907E+03</rscale>
<asrwt>0</asrwt>
<pdfrwt beam="1">  1       21 0.36813955E-01 0.34161907E+03</pdfrwt>
<pdfrwt beam="2">  1       -1 0.25074553E+00 0.34161907E+03</pdfrwt>
<totfact> 0.49195355E+01</totfact>
</mgrwt>
</event>
<event>
 4    0  0.1496170E-001  0.2829121E+03  0.7546771E-02  0.1094109E+00
          1   -1    0    0  502    0 -0.00000000000E+00  0.00000000000E+00  0.25387371005E+04  0.25387371005E+04  0.00000000000E+00 0. -1.
         21   -1    0    0  501  502  0.00000000000E+00 -0.00000000000E+00 -0.35543838855E+02  0.35543838855E+02  0.00000000000E+00 0. -1.
         25    1    1    2    0    0  0.60638834413E+02  0.24644919864E+03  0.72805713950E+03  0.78109312769E+03  0.12500000000E+03 0.  0.
          1    1    1    2  501    0 -0.60638834413E+02 -0.24644919864E+03  0.17751361221E+04  0.17931878117E+04  0.00000000000E+00 0. -1.
<mgrwt>
<rscale>  3 0.28291213E+03</rscale>
<asrwt>0</asrwt>
<pdfrwt beam="1">  1       21 0.54682849E-02 0.28291213E+03</pdfrwt>
<pdfrwt beam="2">  1        1 0.39057479E+00 0.28291213E+03</pdfrwt>
<totfact> 0.38274795E+03</totfact>
</mgrwt>
</event>
<event>
 4    0  0.1260745E-001  0.2471092E+03  0.7546771E-02  0.1115145E+00
         21   -1    0    0  501  502  0.00000000000E+00  0.00000000000E+00  0.20815058301E+03  0.20815058301E+03  0.00000000000E+00 0.  1.
          2   -1    0    0  502    0 -0.00000000000E+00 -0.00000000000E+00 -0.27615918863E+03  0.27615918863E+03  0.00000000000E+00 0.  1.
         25    1    1    2    0    0  0.47660083712E+02 -0.20776539733E+03  0.31421001645E+02  0.24909882226E+03  0.12500000000E+03 0.  0.
          2    1    1    2  501    0 -0.47660083712E+02  0.20776539733E+03 -0.99429607264E+02  0.23521094938E+03  0.00000000000E+00 0.  1.
<mgrwt>
<rscale>  3 0.24710917E+03</rscale>
<asrwt>0</asrwt>
<pdfrwt beam="1">  1       21 0.32023167E-01 0.24710917E+03</pdfrwt>
<pdfrwt beam="2">  1        2 0.42486029E-01 0.24710917E+03</pdfrwt>
<totfact> 0.13770757E+04</totfact>
</mgrwt>
</event>
<event>
 4    0  0.1700019E-001  0.2998259E+03  0.7546771E-02  0.1085328E+00
         21   -1    0    0  501  502  0.00000000000E+00  0.00000000000E+00  0.27454111874E+03  0.27454111874E+03  0.00000000000E+00 0.  1.
          2   -1    0    0  502    0 -0.00000000000E+00 -0.00000000000E+00 -0.17924116385E+04  0.17924116385E+04  0.00000000000E+00 0. -1.
         25    1    1    2    0    0  0.13642639437E+03 -0.23592028453E+03  0.17842833382E+03  0.34890143600E+03  0.12500000000E+03 0.  0.
          2    1    1    2  501    0 -0.13642639437E+03  0.23592028453E+03 -0.16962988536E+04  0.17180513212E+04  0.00000000000E+00 0. -1.
<mgrwt>
<rscale>  3 0.29982585E+03</rscale>
<asrwt>0</asrwt>
<pdfrwt beam="1">  1       21 0.42237096E-01 0.29982585E+03</pdfrwt>
<pdfrwt beam="2">  1        2 0.27575563E+00 0.29982585E+03</pdfrwt>
<totfact> 0.62468470E+02</totfact>
</mgrwt>
</event>
<event>
 4    0  0.1448897E-001  0.2488156E+03  0.7546771E-02  0.1114056E+00
         21   -1    0    0  501  502  0.00000000000E+00  0.00000000000E+00  0.22681423301E+03  0.22681423301E+03  0.00000000000E+00 0. -1.
         -3   -1    0    0    0  501 -0.00000000000E+00 -0.00000000000E+00 -0.31248540725E+03  0.31248540725E+03  0.00000000000E+00 0. -1.
         25    1    1    2    0    0  0.20163081570E+03  0.75028253325E+02  0.86843998342E+02  0.26353577496E+03  0.12500000000E+03 0.  0.
         -3    1    1    2    0  502 -0.20163081570E+03 -0.75028253325E+02 -0.17251517257E+03  0.27576386530E+03  0.00000000000E+00 0. -1.
<mgrwt>
<rscale>  3 0.24881564E+03</rscale>
<asrwt>0</asrwt>
<pdfrwt beam="1">  1       21 0.34894497E-01 0.24881564E+03</pdfrwt>
<pdfrwt beam="2">  1       -3 0.48074678E-01 0.24881564E+03</pdfrwt>
<totfact> 0.16840827E+03</totfact>
</mgrwt>
</event>
<event>
 4    0  0.1733026E-001  0.2478002E+03  0.7546771E-02  0.1114703E+00
         21   -1    0    0  501  502  0.00000000000E+00  0.00000000000E+00  0.21462090787E+03  0.21462090787E+03  0.00000000000E+00 0.  1.
         -1   -1    0    0    0  501 -0.00000000000E+00 -0.00000000000E+00 -0.25008935484E+03  0.25008935484E+03  0.00000000000E+00 0.  1.
         25    1    1    2    0    0 -0.21370830925E+03 -0.10425843933E+02  0.16875600550E+00  0.24780025856E+03  0.12500000000E+03 0.  0.
         -1    1    1    2    0  502  0.21370830925E+03  0.10425843933E+02 -0.35637202974E+02  0.21691000415E+03  0.00000000000E+00 0.  1.
<mgrwt>
<rscale>  3 0.24780020E+03</rscale>
<asrwt>0</asrwt>
<pdfrwt beam="1">  1       21 0.33018601E-01 0.24780020E+03</pdfrwt>
<pdfrwt beam="2">  1       -1 0.38475285E-01 0.24780020E+03</pdfrwt>
<totfact> 0.53150136E+03</totfact>
</mgrwt>
</event>
<event>
 4    0  0.1002184E-001  0.2583724E+03  0.7546771E-02  0.1108125E+00
         21   -1    0    0  501  502  0.00000000000E+00  0.00000000000E+00  0.58836175063E+02  0.58836175063E+02  0.00000000000E+00 0. -1.
          3   -1    0    0  502    0 -0.00000000000E+00 -0.00000000000E+00 -0.10463689107E+04  0.10463689107E+04  0.00000000000E+00 0.  1.
         25    1    1    2    0    0 -0.20372818275E+03 -0.98112924365E+02 -0.40581612757E+03  0.48108528118E+03  0.12500000000E+03 0.  0.
          3    1    1    2  501    0  0.20372818275E+03  0.98112924365E+02 -0.58171660810E+03  0.62411980461E+03  0.00000000000E+00 0.  1.
<mgrwt>
<rscale>  3 0.25837244E+03</rscale>
<asrwt>0</asrwt>
<pdfrwt beam="1">  1       21 0.90517189E-02 0.25837244E+03</pdfrwt>
<pdfrwt beam="2">  1        3 0.16097984E+00 0.25837244E+03</pdfrwt>
<totfact> 0.13701344E+03</totfact>
</mgrwt>
</event>
<event>
 4    0  0.1103117E-001  0.4816576E+03  0.7546771E-02  0.1018681E+00
          2   -1    0    0  502    0 -0.00000000000E+00  0.00000000000E+00  0.13879786381E+04  0.13879786381E+04  0.00000000000E+00 0. -1.
         21   -1    0    0  501  502  0.00000000000E+00 -0.00000000000E+00 -0.24550147653E+03  0.24550147653E+03  0.00000000000E+00 0.  1.
         25    1    1    2    0    0 -0.44749199115E+03  0.12696457026E+03  0.99992989870E+02  0.49192751729E+03  0.12500000000E+03 0.  0.
          2    1    1    2  501    0  0.44749199115E+03 -0.12696457026E+03  0.10424841717E+04  0.11415525973E+04  0.00000000000E+00 0. -1.
<mgrwt>
<rscale>  3 0.48165764E+03</rscale>
<asrwt>0</asrwt>
<pdfrwt beam="1">  1       21 0.37769459E-01 0.48165764E+03</pdfrwt>
<pdfrwt beam="2">  1        2 0.21353517E+00 0.48165764E+03</pdfrwt>
<totfact> 0.12217084E+03</totfact>
</mgrwt>
</event>
<event>
 4    0  0.1467101E-001  0.2691658E+03  0.7546771E-02  0.1101758E+00
          2   -1    0    0  502    0 -0.00000000000E+00  0.00000000000E+00  0.50620927614E+03  0.50620927614E+03  0.00000000000E+00 0.  1.
         21   -1    0    0  501  502  0.00000000000E+00 -0.00000000000E+00 -0.12844326113E+03  0.12844326113E+03  0.00000000000E+00 0.  1.
         25    1    1    2    0    0 -0.13678209481E+03  0.19523293458E+03  0.16934101393E+03  0.31800411822E+03  0.12500000000E+03 0.  0.
          2    1    1    2  501    0  0.13678209481E+03 -0.19523293458E+03  0.20842500108E+03  0.31664841904E+03  0.00000000000E+00 0.  1.
<mgrwt>
<rscale>  3 0.26916582E+03</rscale>
<asrwt>0</asrwt>
<pdfrwt beam="1">  1       21 0.19760502E-01 0.26916582E+03</pdfrwt>
<pdfrwt beam="2">  1        2 0.77878349E-01 0.26916582E+03</pdfrwt>
<totfact> 0.17930394E+04</totfact>
</mgrwt>
</event>
<event>
 4    0  0.1002184E-001  0.2672088E+03  0.7546771E-02  0.1102888E+00
         21   -1    0    0  501  502  0.00000000000E+00  0.00000000000E+00  0.30029461678E+04  0.30029461678E+04  0.00000000000E+00 0.  1.
          2   -1    0    0  502    0 -0.00000000000E+00 -0.00000000000E+00 -0.22220608706E+02  0.22220608706E+02  0.00000000000E+00 0.  1.
         25    1    1    2    0    0 -0.23268356377E+03 -0.40421259131E+02  0.19174303545E+04  0.19359596286E+04  0.12500000000E+03 0.  0.
          2    1    1    2  501    0  0.23268356377E+03  0.40421259131E+02  0.10632952046E+04  0.10892071480E+04  0.00000000000E+00 0.  1.
<mgrwt>
<rscale>  3 0.26720876E+03</rscale>
<asrwt>0</asrwt>
<pdfrwt beam="1">  1       21 0.46199140E+00 0.26720876E+03</pdfrwt>
<pdfrwt beam="2">  1        2 0.34185576E-02 0.26720876E+03</pdfrwt>
<totfact> 0.99503405E+01</totfact>
</mgrwt>
</event>
<event>
 4    0  0.1002184E-001  0.2949443E+03  0.7546771E-02  0.1087796E+00
         21   -1    0    0  501  502  0.00000000000E+00  0.00000000000E+00  0.10663933779E+04  0.10663933779E+04  0.00000000000E+00 0.  1.
         -3   -1    0    0    0  501 -0.00000000000E+00 -0.00000000000E+00 -0.99711568037E+02  0.99711568037E+02  0.00000000000E+00 0. -1.
         25    1    1    2    0    0  0.98427490469E+02  0.24835286667E+03  0.79650549555E+03  0.84936041920E+03  0.12500000000E+03 0.  0.
         -3    1    1    2    0  502 -0.98427490469E+02 -0.24835286667E+03  0.17017631431E+03  0.31674452674E+03  0.00000000000E+00 0. -1.
<mgrwt>
<rscale>  3 0.29494426E+03</rscale>
<asrwt>0</asrwt>
<pdfrwt beam="1">  1       21 0.16406051E+00 0.29494426E+03</pdfrwt>
<pdfrwt beam="2">  1       -3 0.15340242E-01 0.29494426E+03</pdfrwt>
<totfact> 0.40108616E+02</totfact>
</mgrwt>
</event>
<event>
 4    0  0.1355592E-001  0.2720933E+03  0.7546771E-02  0.1100088E+00
          1   -1    0    0  502    0 -0.00000000000E+00  0.00000000000E+00  0.35507181874E+03  0.35507181874E+03  0.00000000000E+00 0. -1.
         21   -1    0    0  501  502  0.00000000000E+00 -0.00000000000E+00 -0.18737353462E+03  0.18737353462E+03  0.00000000000E+00 0. -1.
         25    1    1    2    0    0  0.61146096090E+02  0.23381809536E+03  0.64378877758E+02  0.27960577013E+03  0.12500000000E+03 0.  0.
          1    1    1    2  501    0 -0.61146096090E+02 -0.23381809536E+03  0.10331940636E+03  0.26283958324E+03  0.00000000000E+00 0. -1.
<mgrwt>
<rscale>  3 0.27209327E+03</rscale>
<asrwt>0</asrwt>
<pdfrwt beam="1">  1       21 0.28826698E-01 0.27209327E+03</pdfrwt>
<pdfrwt beam="2">  1        1 0.54626434E-01 0.27209327E+03</pdfrwt>
<totfact> 0.87798999E+03</totfact>
</mgrwt>
</event>
<event>
 4    0  0.1002184E-001  0.2591711E+03  0.7546771E-02  0.1107642E+00
         21   -1    0    0  501  502  0.00000000000E+00  0.00000000000E+00  0.65309490167E+02  0.65309490167E+02  0.00000000000E+00 0. -1.
         -1   -1    0    0    0  501 -0.00000000000E+00 -0.00000000000E+00 -0.15340210202E+04  0.15340210202E+04  0.00000000000E+00 0.  1.
         25    1    1    2    0    0  0.92611777152E+02 -0.20728654837E+03 -0.25154530322E+03  0.36117128066E+03  0.12500000000E+03 0.  0.
         -1    1    1    2    0  502 -0.92611777152E+02  0.20728654837E+03 -0.12171662268E+04  0.12381592297E+04  0.00000000000E+00 0.  1.
<mgrwt>
<rscale>  3 0.25917109E+03</rscale>
<asrwt>0</asrwt>
<pdfrwt beam="1">  1       21 0.10047615E-01 0.25917109E+03</pdfrwt>
<pdfrwt beam="2">  1       -1 0.23600321E+00 0.25917109E+03</pdfrwt>
<totfact> 0.73054425E+02</totfact>
</mgrwt>
</event>
<event>
 4    0  0.1002184E-001  0.2621620E+03  0.7546771E-02  0.1105851E+00
          2   -1    0    0  502    0 -0.00000000000E+00  0.00000000000E+00  0.27013898302E+03  0.27013898302E+03  0.00000000000E+00 0. -1.
         21   -1    0    0  501  502  0.00000000000E+00 -0.00000000000E+00 -0.33492467108E+03  0.33492467108E+03  0.00000000000E+00 0.  1.
         25    1    1    2    0    0  0.23043369201E+03  0.20548578255E+01 -0.20720772101E+03  0.33416156048E+03  0.12500000000E+03 0.  0.
          2    1    1    2  501    0 -0.23043369201E+03 -0.20548578255E+01  0.14242203295E+03  0.27090209361E+03  0.00000000000E+00 0. -1.
<mgrwt>
<rscale>  3 0.26216199E+03</rscale>
<asrwt>0</asrwt>
<pdfrwt beam="1">  1       21 0.51526873E-01 0.26216199E+03</pdfrwt>
<pdfrwt beam="2">  1        2 0.41559843E-01 0.26216199E+03</pdfrwt>
<totfact> 0.53297232E+03</totfact>
</mgrwt>
</event>
<event>
 4    0  0.1002184E-001  0.2424599E+03  0.7546771E-02  0.1118165E+00
         21   -1    0    0  501  502  0.00000000000E+00  0.00000000000E+00  0.14443130377E+04  0.14443130377E+04  0.00000000000E+00 0.  1.
         -2   -1    0    0    0  501 -0.00000000000E+00 -0.00000000000E+00 -0.39146925765E+02  0.39146925765E+02  0.00000000000E+00 0. -1.
         25    1    1    2    0    0  0.61387074613E+02 -0.19847784205E+03  0.98942213853E+03  0.10186967139E+04  0.12500000000E+03 0.  0.
         -2    1    1    2    0  502 -0.61387074613E+02  0.19847784205E+03  0.41574397340E+03  0.46476324955E+03  0.00000000000E+00 0. -1.
<mgrwt>
<rscale>  3 0.24245995E+03</rscale>
<asrwt>0</asrwt>
<pdfrwt beam="1">  1       21 0.22220196E+00 0.24245995E+03</pdfrwt>
<pdfrwt beam="2">  1       -2 0.60226051E-02 0.24245995E+03</pdfrwt>
<totfact> 0.10874126E+03</totfact>
</mgrwt>
</event>
<event>
 4    0  0.1300103E-001  0.3611882E+03  0.7546771E-02  0.1058114E+00
          1   -1    0    0  502    0 -0.00000000000E+00  0.00000000000E+00  0.44110931034E+03  0.44110931034E+03  0.00000000000E+00 0. -1.
         21   -1    0    0  501  502  0.00000000000E+00 -0.00000000000E+00 -0.41843245509E+03  0.41843245509E+03  0.00000000000E+00 0. -1.
         25    1    1    2    0    0  0.10390234080E+03  0.32254647903E+03 -0.23753180224E+03  0.43229421073E+03  0.12500000000E+03 0.  0.
          1    1    1    2  501    0 -0.10390234080E+03 -0.32254647903E+03  0.26020865749E+03  0.42724755469E+03  0.00000000000E+00 0. -1.
<mgrwt>
<rscale>  3 0.36118822E+03</rscale>
<asrwt>0</asrwt>
<pdfrwt beam="1">  1       21 0.64374223E-01 0.36118822E+03</pdfrwt>
<pdfrwt beam="2">  1        1 0.67862971E-01 0.36118822E+03</pdfrwt>
<totfact> 0.12313365E+03</totfact>
</mgrwt>
</event>
<event>
 4    0  0.1226535E-001  0.2886600E+03  0.7546771E-02  0.1091051E+00
          4   -1    0    0  502    0 -0.00000000000E+00  0.00000000000E+00  0.15663714264E+03  0.15663714264E+03  0.00000000000E+00 0. -1.
         21   -1    0    0  501  502  0.00000000000E+00 -0.00000000000E+00 -0.48439779401E+03  0.48439779401E+03  0.00000000000E+00 0. -1.
         25    1    1    2    0    0 -0.16229567659E+03  0.20337092028E+03 -0.19994330536E+03  0.35114376431E+03  0.12500000000E+03 0.  0.
          4    1    1    2  501    0  0.16229567659E+03 -0.20337092028E+03 -0.12781734601E+03  0.28989117234E+03  0.00000000000E+00 0. -1.
<mgrwt>
<rscale>  3 0.28866004E+03</rscale>
<asrwt>0</asrwt>
<pdfrwt beam="1">  1       21 0.74522738E-01 0.28866004E+03</pdfrwt>
<pdfrwt beam="2">  1        4 0.24098022E-01 0.28866004E+03</pdfrwt>
<totfact> 0.10838364E+03</totfact>
</mgrwt>
</event>
<event>
 4    0  0.1002184E-001  0.6584173E+03  0.7546771E-02  0.9791112E-01
          2   -1    0    0  502    0 -0.00000000000E+00  0.00000000000E+00  0.21651531581E+04  0.21651531581E+04  0.00000000000E+00 0.  1.
         21   -1    0    0  501  502  0.00000000000E+00 -0.00000000000E+00 -0.19691304944E+03  0.19691304944E+03  0.00000000000E+00 0.  1.
         25    1    1    2    0    0  0.21917525566E+03 -0.60815342061E+03  0.10403665860E+04  0.12312091654E+04  0.12500000000E+03 0.  0.
          2    1    1    2  501    0 -0.21917525566E+03  0.60815342061E+03  0.92787352266E+03  0.11308570421E+04  0.00000000000E+00 0.  1.
<mgrwt>
<rscale>  3 0.65841733E+03</rscale>
<asrwt>0</asrwt>
<pdfrwt beam="1">  1       21 0.30294317E-01 0.65841733E+03</pdfrwt>
<pdfrwt beam="2">  1        2 0.33310047E+00 0.65841733E+03</pdfrwt>
<totfact> 0.69264364E+02</totfact>
</mgrwt>
</event>
<event>
 4    0  0.1002184E-001  0.3080124E+03  0.7546771E-02  0.1081302E+00
         21   -1    0    0  501  502  0.00000000000E+00  0.00000000000E+00  0.56326643918E+02  0.56326643918E+02  0.00000000000E+00 0.  1.
          2   -1    0    0  502    0 -0.00000000000E+00 -0.00000000000E+00 -0.15453489458E+04  0.15453489458E+04  0.00000000000E+00 0. -1.
         25    1    1    2    0    0 -0.27393842186E+03 -0.64841326191E+02 -0.74353789834E+03  0.80481069999E+03  0.12500000000E+03 0.  0.
          2    1    1    2  501    0  0.27393842186E+03  0.64841326191E+02 -0.74548440349E+03  0.79686488968E+03  0.00000000000E+00 0. -1.
<mgrwt>
<rscale>  3 0.30801243E+03</rscale>
<asrwt>0</asrwt>
<pdfrwt beam="1">  1       21 0.86656383E-02 0.30801243E+03</pdfrwt>
<pdfrwt beam="2">  1        2 0.23774597E+00 0.30801243E+03</pdfrwt>
<totfact> 0.16824691E+04</totfact>
</mgrwt>
</event>
<event>
 4    0  0.1338567E-001  0.2683506E+03  0.7546771E-02  0.1102227E+00
         21   -1    0    0  501  502  0.00000000000E+00  0.00000000000E+00  0.75971233925E+02  0.75971233925E+02  0.00000000000E+00 0.  1.
          1   -1    0    0  502    0 -0.00000000000E+00 -0.00000000000E+00 -0.20277594143E+04  0.20277594143E+04  0.00000000000E+00 0. -1.
         25    1    1    2    0    0  0.23739147573E+03 -0.56845048729E+01 -0.19687275074E+03  0.33282263494E+03  0.12500000000E+03 0.  0.
          1    1    1    2  501    0 -0.23739147573E+03  0.56845048729E+01 -0.17549154296E+04  0.17709080132E+04  0.00000000000E+00 0. -1.
<mgrwt>
<rscale>  3 0.26835057E+03</rscale>
<asrwt>0</asrwt>
<pdfrwt beam="1">  1       21 0.11687881E-01 0.26835057E+03</pdfrwt>
<pdfrwt beam="2">  1        1 0.31196303E+00 0.26835057E+03</pdfrwt>
<totfact> 0.21975754E+03</totfact>
</mgrwt>
</event>
<event>
 4    0  0.1211913E-001  0.2913813E+03  0.7546771E-02  0.1089630E+00
         21   -1    0    0  501  502  0.00000000000E+00  0.00000000000E+00  0.10900525510E+04  0.10900525510E+04  0.00000000000E+00 0.  1.
         -2   -1    0    0    0  501 -0.00000000000E+00 -0.00000000000E+00 -0.70546317555E+02  0.70546317555E+02  0.00000000000E+00 0.  1.
         25    1    1    2    0    0 -0.24458420962E+03  0.97245331367E+02  0.53009895112E+03  0.60490328818E+03  0.12500000000E+03 0.  0.
         -2    1    1    2    0  502  0.24458420962E+03 -0.97245331367E+02  0.48940728237E+03  0.55569558042E+03  0.00000000000E+00 0.  1.
<mgrwt>
<rscale>  3 0.29138135E+03</rscale>
<asrwt>0</asrwt>
<pdfrwt beam="1">  1       21 0.16770038E+00 0.29138135E+03</pdfrwt>
<pdfrwt beam="2">  1       -2 0.10853280E-01 0.29138135E+03</pdfrwt>
<totfact> 0.97132145E+02</totfact>
</mgrwt>
</event>
<event>
 4    0  0.1002184E-001  0.9112378E+03  0.7546771E-02  0.9411642E-01
          1   -1    0    0  502    0 -0.00000000000E+00  0.00000000000E+00  0.25790589387E+04  0.25790589387E+04  0.00000000000E+00 0.  1.
         21   -1    0    0  501  502  0.00000000000E+00 -0.00000000000E+00 -0.33151329426E+03  0.33151329426E+03  0.00000000000E+00 0.  1.
         25    1    1    2    0    0  0.89419524806E+03 -0.12306135671E+03  0.84531247641E+03  0.12429430486E+04  0.12500000000E+03 0.  0.
          1    1    1    2  501    0 -0.89419524806E+03  0.12306135671E+03  0.14022331680E+04  0.16676291844E+04  0.00000000000E+00 0.  1.
<mgrwt>
<rscale>  3 0.91123775E+03</rscale>
<asrwt>0</asrwt>
<pdfrwt beam="1">  1       21 0.51002047E-01 0.91123775E+03</pdfrwt>
<pdfrwt beam="2">  1        1 0.39677829E+00 0.91123775E+03</pdfrwt>
<totfact> 0.43924272E+01</totfact>
</mgrwt>
</event>
<event>
 4    0  0.1002184E-001  0.4239345E+03  0.7546771E-02  0.1035793E+00
         21   -1    0    0  501  502  0.00000000000E+00  0.00000000000E+00  0.19751114571E+03  0.19751114571E+03  0.00000000000E+00 0. -1.
          2   -1    0    0  502    0 -0.00000000000E+00 -0.00000000000E+00 -0.87484564363E+03  0.87484564363E+03  0.00000000000E+00 0.  1.
         25    1    1    2    0    0  0.21788866614E+03 -0.34149670408E+03 -0.38653986419E+03  0.57370160915E+03  0.12500000000E+03 0.  0.
          2    1    1    2  501    0 -0.21788866614E+03  0.34149670408E+03 -0.29079463373E+03  0.49865518020E+03  0.00000000000E+00 0.  1.
<mgrwt>
<rscale>  3 0.42393451E+03</rscale>
<asrwt>0</asrwt>
<pdfrwt beam="1">  1       21 0.30386330E-01 0.42393451E+03</pdfrwt>
<pdfrwt beam="2">  1        2 0.13459164E+00 0.42393451E+03</pdfrwt>
<totfact> 0.39004003E+03</totfact>
</mgrwt>
</event>
