<event>
 5    0  0.1856407E+000  0.2446637E+03  0.7546771E-02  0.1116724E+00
         21   -1    0    0  502  501  0.00000000000E+00  0.00000000000E+00  0.88095361462E+03  0.88095361462E+03  0.00000000000E+00 0. -1.
         21   -1    0    0  503  502 -0.00000000000E+00 -0.00000000000E+00 -0.36257893364E+03  0.36257893364E+03  0.00000000000E+00 0.  1.
         25    1    1    2    0    0 -0.15130527044E+03  0.14673183136E+03  0.81309921720E+03  0.84922249865E+03  0.12500000000E+03 0.  0.
         21    1    1    2  503  504  0.25997364807E+02  0.14199673648E+02  0.66921753461E+01  0.30369045416E+02  0.00000000000E+00 0. -1.
         21    1    1    2  504  501  0.12530790563E+03 -0.16093150501E+03 -0.30141671157E+03  0.36394100419E+03  0.00000000000E+00 0.  1.
<mgrwt>
<rscale>  4 0.24466366E+03</rscale>
<asrwt>0</asrwt>
<pdfrwt beam="1">  1       21 0.13553132E+00 0.24466366E+03</pdfrwt>
<pdfrwt beam="2">  1       21 0.55781375E-01 0.24466366E+03</pdfrwt>
<totfact> 0.11225837E+03</totfact>
</mgrwt>
</event>
<event>
 5    0  0.2155952E+000  0.3377004E+03  0.7546771E-02  0.1067780E+00
         21   -1    0    0  502  501  0.00000000000E+00  0.00000000000E+00  0.15335568960E+04  0.15335568960E+04  0.00000000000E+00 0.  1.
         21   -1    0    0  503  502 -0.00000000000E+00 -0.00000000000E+00 -0.96847375977E+02  0.96847375977E+02  0.00000000000E+00 0.  1.
         25    1    1    2    0    0 -0.32114645981E+03  0.54881550064E+02  0.92372755467E+03  0.98744348114E+03  0.12500000000E+03 0.  0.
         21    1    1    2  503  504  0.36247758709E+02  0.39429969837E+02  0.61061874590E+01  0.53906475103E+02  0.00000000000E+00 0.  1.
         21    1    1    2  504  501  0.28489870110E+03 -0.94311519901E+02  0.50687577792E+03  0.58905431576E+03  0.00000000000E+00 0.  1.
<mgrwt>
<rscale>  4 0.33770043E+03</rscale>
<asrwt>0</asrwt>
<pdfrwt beam="1">  1       21 0.23593181E+00 0.33770043E+03</pdfrwt>
<pdfrwt beam="2">  1       21 0.14899597E-01 0.33770043E+03</pdfrwt>
<totfact> 0.28485228E+03</totfact>
</mgrwt>
</event>
<event>
 5    0  0.1856407E+000  0.4128635E+03  0.7546771E-02  0.1039414E+00
         21   -1    0    0  502  501  0.00000000000E+00  0.00000000000E+00  0.32755974743E+03  0.32755974743E+03  0.00000000000E+00 0.  1.
         21   -1    0    0  503  502 -0.00000000000E+00 -0.00000000000E+00 -0.10721942467E+04  0.10721942467E+04  0.00000000000E+00 0.  1.
         25    1    1    2    0    0  0.53025875360E+02 -0.38989680141E+03  0.13279199506E+03  0.43369340918E+03  0.12500000000E+03 0.  0.
         21    1    1    2  503  504 -0.71785738253E+02  0.34128215646E+03 -0.80022843628E+03  0.87292167620E+03  0.00000000000E+00 0.  1.
         21    1    1    2  504  501  0.18759862892E+02  0.48614644947E+02 -0.77198058058E+02  0.93138908771E+02  0.00000000000E+00 0. -1.
<mgrwt>
<rscale>  4 0.41286349E+03</rscale>
<asrwt>0</asrwt>
<pdfrwt beam="1">  1       21 0.50393806E-01 0.41286349E+03</pdfrwt>
<pdfrwt beam="2">  1       21 0.16495296E+00 0.41286349E+03</pdfrwt>
<totfact> 0.73964659E+02</totfact>
</mgrwt>
</event>
<event>
 5    0  0.1856407E+000  0.2468399E+03  0.7546771E-02  0.1115318E+00
         21   -1    0    0  502  501  0.00000000000E+00  0.00000000000E+00  0.17170839996E+04  0.17170839996E+04  0.00000000000E+00 0.  1.
         21   -1    0    0  503  502 -0.00000000000E+00 -0.00000000000E+00 -0.39958858680E+03  0.39958858680E+03  0.00000000000E+00 0. -1.
         25    1    1    2    0    0  0.17196631006E+03  0.12542944450E+03  0.16775882095E+04  0.16956509540E+04  0.12500000000E+03 0.  0.
         21    1    1    2  503  504 -0.12421777914E+03 -0.82517588217E+02 -0.20800794823E+03  0.25594240670E+03  0.00000000000E+00 0. -1.
         21    1    1    2  504  501 -0.47748530918E+02 -0.42911856285E+02 -0.15208484846E+03  0.16507922566E+03  0.00000000000E+00 0.  1.
<mgrwt>
<rscale>  4 0.24683994E+03</rscale>
<asrwt>0</asrwt>
<pdfrwt beam="1">  1       21 0.26416677E+00 0.24683994E+03</pdfrwt>
<pdfrwt beam="2">  1       21 0.61475168E-01 0.24683994E+03</pdfrwt>
<totfact> 0.12556721E+02</totfact>
</mgrwt>
</event>
<event>
 5    0  0.1856407E+000  0.3112001E+03  0.7546771E-02  0.1079772E+00
         21   -1    0    0  502  501  0.00000000000E+00  0.00000000000E+00  0.16993929076E+04  0.16993929076E+04  0.00000000000E+00 0. -1.
         21   -1    0    0  503  502 -0.00000000000E+00 -0.00000000000E+00 -0.19660268393E+03  0.19660268393E+03  0.00000000000E+00 0. -1.
         25    1    1    2    0    0  0.22722626850E+03  0.21904308284E+03  0.14914172106E+04  0.15295626647E+04  0.12500000000E+03 0.  0.
         21    1    1    2  503  504 -0.21883843582E+03 -0.17897935286E+03 -0.55426187311E+02  0.28809014559E+03  0.00000000000E+00 0. -1.
         21    1    1    2  504  501 -0.83878326801E+01 -0.40063729983E+02  0.66799200405E+02  0.78342781237E+02  0.00000000000E+00 0. -1.
<mgrwt>
<rscale>  4 0.31120006E+03</rscale>
<asrwt>0</asrwt>
<pdfrwt beam="1">  1       21 0.26144505E+00 0.31120006E+03</pdfrwt>
<pdfrwt beam="2">  1       21 0.30246568E-01 0.31120006E+03</pdfrwt>
<totfact> 0.52849903E+02</totfact>
</mgrwt>
</event>
<event>
 5    0  0.1856407E+000  0.2545867E+03  0.7546771E-02  0.1110440E+00
         21   -1    0    0  502  501  0.00000000000E+00  0.00000000000E+00  0.40090051888E+03  0.40090051888E+03  0.00000000000E+00 0.  1.
         21   -1    0    0  503  502 -0.00000000000E+00 -0.00000000000E+00 -0.16097426463E+03  0.16097426463E+03  0.00000000000E+00 0.  1.
         25    1    1    2    0    0  0.22153392520E+03  0.10587154400E+02  0.21463849998E+03  0.33299257277E+03  0.12500000000E+03 0.  0.
         21    1    1    2  503  504 -0.85015011733E+02  0.14271552310E+02 -0.67487721594E+01  0.86468348839E+02  0.00000000000E+00 0.  1.
         21    1    1    2  504  501 -0.13651891346E+03 -0.24858706710E+02  0.32036526434E+02  0.14241386189E+03  0.00000000000E+00 0.  1.
<mgrwt>
<rscale>  4 0.25458666E+03</rscale>
<asrwt>0</asrwt>
<pdfrwt beam="1">  1       21 0.61677003E-01 0.25458666E+03</pdfrwt>
<pdfrwt beam="2">  1       21 0.24765272E-01 0.25458666E+03</pdfrwt>
<totfact> 0.36563673E+04</totfact>
</mgrwt>
</event>
<event>
 5    0  0.2948856E+000  0.2238231E+03  0.7546771E-02  0.1131064E+00
         21   -1    0    0  502  501  0.00000000000E+00  0.00000000000E+00  0.27361524615E+03  0.27361524615E+03  0.00000000000E+00 0.  1.
         21   -1    0    0  503  502 -0.00000000000E+00 -0.00000000000E+00 -0.25738490021E+03  0.25738490021E+03  0.00000000000E+00 0.  1.
         25    1    1    2    0    0 -0.22015322518E+03  0.52309471207E+01  0.10731829134E+03  0.27502185553E+03  0.12500000000E+03 0.  0.
         21    1    1    2  503  504  0.43577094132E+02  0.38437692168E+01  0.19003682468E+02  0.47695677395E+02  0.00000000000E+00 0.  1.
         21    1    1    2  504  501  0.17657613104E+03 -0.90747163374E+01 -0.11009162788E+03  0.20828261344E+03  0.00000000000E+00 0.  1.
<mgrwt>
<rscale>  4 0.22382307E+03</rscale>
<asrwt>0</asrwt>
<pdfrwt beam="1">  1       21 0.42094653E-01 0.22382307E+03</pdfrwt>
<pdfrwt beam="2">  1       21 0.39597677E-01 0.22382307E+03</pdfrwt>
<totfact> 0.32854938E+04</totfact>
</mgrwt>
</event>
<event>
 5    0  0.1856407E+000  0.2527966E+03  0.7546771E-02  0.1111550E+00
         21   -1    0    0  502  501  0.00000000000E+00  0.00000000000E+00  0.30430944875E+03  0.30430944875E+03  0.00000000000E+00 0. -1.
         21   -1    0    0  503  502 -0.00000000000E+00 -0.00000000000E+00 -0.22779871776E+03  0.22779871776E+03  0.00000000000E+00 0. -1.
         25    1    1    2    0    0 -0.20457025295E+03  0.80200462609E+02  0.14177208411E+03  0.28983689625E+03  0.12500000000E+03 0.  0.
         21    1    1    2  503  504  0.14204004464E+03 -0.24206789626E+02 -0.65637813173E+02  0.15833403129E+03  0.00000000000E+00 0. -1.
         21    1    1    2  504  501  0.62530208309E+02 -0.55993672982E+02  0.37646005469E+00  0.83937238979E+02  0.00000000000E+00 0. -1.
<mgrwt>
<rscale>  4 0.25279656E+03</rscale>
<asrwt>0</asrwt>
<pdfrwt beam="1">  1       21 0.46816838E-01 0.25279656E+03</pdfrwt>
<pdfrwt beam="2">  1       21 0.35045957E-01 0.25279656E+03</pdfrwt>
<totfact> 0.33294872E+04</totfact>
</mgrwt>
</event>
<event>
 5    0  0.1856407E+000  0.2746600E+03  0.7546771E-02  0.1098642E+00
         21   -1    0    0  502  501  0.00000000000E+00  0.00000000000E+00  0.94796839464E+03  0.94796839464E+03  0.00000000000E+00 0.  1.
         21   -1    0    0  503  502 -0.00000000000E+00 -0.00000000000E+00 -0.17479194770E+03  0.17479194770E+03  0.00000000000E+00 0.  1.
         25    1    1    2    0    0 -0.24063695024E+03 -0.43668839162E+02  0.81695514311E+03  0.86188967693E+03  0.12500000000E+03 0.  0.
         21    1    1    2  503  504  0.21343302998E+03  0.11226885058E+02 -0.27411158338E+02  0.21547870622E+03  0.00000000000E+00 0.  1.
         21    1    1    2  504  501  0.27203920264E+02  0.32441954104E+02 -0.16367537830E+02  0.45391959183E+02  0.00000000000E+00 0.  1.
<mgrwt>
<rscale>  4 0.27465999E+03</rscale>
<asrwt>0</asrwt>
<pdfrwt beam="1">  1       21 0.14584129E+00 0.27465999E+03</pdfrwt>
<pdfrwt beam="2">  1       21 0.26891069E-01 0.27465999E+03</pdfrwt>
<totfact> 0.39895562E+03</totfact>
</mgrwt>
</event>
<event>
 5    0  0.1856407E+000  0.3986676E+03  0.7546771E-02  0.1044242E+00
         21   -1    0    0  502  501  0.00000000000E+00  0.00000000000E+00  0.31788215403E+03  0.31788215403E+03  0.00000000000E+00 0. -1.
         21   -1    0    0  503  502 -0.00000000000E+00 -0.00000000000E+00 -0.97966861170E+03  0.97966861170E+03  0.00000000000E+00 0.  1.
         25    1    1    2    0    0 -0.30432411611E+03  0.26142056850E+03  0.97197404077E+02  0.43130756618E+03  0.12500000000E+03 0.  0.
         21    1    1    2  503  504  0.11803890792E+02 -0.27122125076E+02 -0.14941752843E+02  0.33139062818E+02  0.00000000000E+00 0.  1.
         21    1    1    2  504  501  0.29252022532E+03 -0.23429844343E+03 -0.74404210890E+03  0.83310413673E+03  0.00000000000E+00 0.  1.
<mgrwt>
<rscale>  4 0.39866755E+03</rscale>
<asrwt>0</asrwt>
<pdfrwt beam="1">  1       21 0.48904948E-01 0.39866755E+03</pdfrwt>
<pdfrwt beam="2">  1       21 0.15071824E+00 0.39866755E+03</pdfrwt>
<totfact> 0.10181924E+03</totfact>
</mgrwt>
</event>
