<event>
 5    0  0.2060628E+001  0.2609397E+03  0.7546771E-02  0.1106580E+00
         21   -1    0    0  503  501  0.00000000000E+00  0.00000000000E+00  0.23788651189E+03  0.23788651189E+03  0.00000000000E+00 0. -1.
         21   -1    0    0  501  502 -0.00000000000E+00 -0.00000000000E+00 -0.31921364936E+03  0.31921364936E+03  0.00000000000E+00 0. -1.
         25    1    1    2    0    0 -0.70541186207E+02  0.20362991809E+03 -0.97649340273E+02  0.26758474573E+03  0.12500000000E+03 0.  0.
         21    1    1    2  503  504  0.69338715296E+02 -0.24117272838E+03  0.20197304897E+02  0.25175399397E+03  0.00000000000E+00 0. -1.
         21    1    1    2  504  502  0.12024709111E+01  0.37542810291E+02 -0.38751020841E+01  0.37761421544E+02  0.00000000000E+00 0.  1.
<mgrwt>
<rscale>  4 0.26093973E+03</rscale>
<asrwt>0</asrwt>
<pdfrwt beam="1">  1       21 0.36597925E-01 0.26093973E+03</pdfrwt>
<pdfrwt beam="2">  1       21 0.49109792E-01 0.26093973E+03</pdfrwt>
<totfact> 0.27529654E+04</totfact>
</mgrwt>
</event>
<event>
 5    0  0.1911311E+001  0.2935693E+03  0.7546771E-02  0.1088500E+00
         21   -1    0    0  504  501  0.00000000000E+00  0.00000000000E+00  0.48890264687E+03  0.48890264687E+03  0.00000000000E+00 0. -1.
         21   -1    0    0  503  502 -0.00000000000E+00 -0.00000000000E+00 -0.89402842793E+03  0.89402842793E+03  0.00000000000E+00 0. -1.
         25    1    1    2    0    0  0.49560150969E+02 -0.26588974215E+03 -0.60759741711E+03  0.67672238386E+03  0.12500000000E+03 0.  0.
         21    1    1    2  503  501 -0.11244979745E+03  0.23652605655E+03 -0.17980771167E+03  0.31767962722E+03  0.00000000000E+00 0. -1.
         21    1    1    2  504  502  0.62889646477E+02  0.29363685596E+02  0.38227934772E+03  0.38852906372E+03  0.00000000000E+00 0. -1.
<mgrwt>
<rscale>  4 0.29356932E+03</rscale>
<asrwt>0</asrwt>
<pdfrwt beam="1">  1       21 0.75215792E-01 0.29356932E+03</pdfrwt>
<pdfrwt beam="2">  1       21 0.13754283E+00 0.29356932E+03</pdfrwt>
<totfact> 0.54007267E+02</totfact>
</mgrwt>
</event>
<event>
 5    0  0.1911311E+001  0.2934491E+03  0.7546771E-02  0.1088562E+00
         21   -1    0    0  504  501  0.00000000000E+00  0.00000000000E+00  0.12207784081E+03  0.12207784081E+03  0.00000000000E+00 0.  1.
         21   -1    0    0  503  502 -0.00000000000E+00 -0.00000000000E+00 -0.10289223002E+04  0.10289223002E+04  0.00000000000E+00 0.  1.
         25    1    1    2    0    0  0.14536790550E+03 -0.25491667151E+03 -0.20673049228E+03  0.38010108366E+03  0.12500000000E+03 0.  0.
         21    1    1    2  503  501 -0.14032300058E+03  0.21646239619E+03 -0.67983656258E+03  0.72713428283E+03  0.00000000000E+00 0.  1.
         21    1    1    2  504  502 -0.50449049205E+01  0.38454275315E+02 -0.20277404570E+02  0.43764774554E+02  0.00000000000E+00 0.  1.
<mgrwt>
<rscale>  4 0.29344906E+03</rscale>
<asrwt>0</asrwt>
<pdfrwt beam="1">  1       21 0.18781207E-01 0.29344906E+03</pdfrwt>
<pdfrwt beam="2">  1       21 0.15829574E+00 0.29344906E+03</pdfrwt>
<totfact> 0.62780254E+03</totfact>
</mgrwt>
</event>
<event>
 5    0  0.1911311E+001  0.2467594E+03  0.7546771E-02  0.1115370E+00
         21   -1    0    0  502  501  0.00000000000E+00  0.00000000000E+00  0.48541278978E+03  0.48541278978E+03  0.00000000000E+00 0. -1.
         21   -1    0    0  504  502 -0.00000000000E+00 -0.00000000000E+00 -0.19831879272E+03  0.19831879272E+03  0.00000000000E+00 0. -1.
         25    1    1    2    0    0  0.94038478392E+02  0.20558336220E+03 -0.14033407813E+02  0.25870773233E+03  0.12500000000E+03 0.  0.
         21    1    1    2  503  501 -0.60256219709E+02 -0.20127929336E+03  0.32243741833E+03  0.38485069142E+03  0.00000000000E+00 0. -1.
         21    1    1    2  504  503 -0.33782258683E+02 -0.43040688379E+01 -0.21310013461E+02  0.40173158750E+02  0.00000000000E+00 0. -1.
<mgrwt>
<rscale>  4 0.24675937E+03</rscale>
<asrwt>0</asrwt>
<pdfrwt beam="1">  1       21 0.74678890E-01 0.24675937E+03</pdfrwt>
<pdfrwt beam="2">  1       21 0.30510584E-01 0.24675937E+03</pdfrwt>
<totfact> 0.16041537E+04</totfact>
</mgrwt>
</event>
