<event>
 5    0  0.5719562E-003  0.8379788E+03  0.7546771E-02  0.9506615E-01
          1   -1    0    0  502    0  0.00000000000E+00  0.00000000000E+00  0.17623935744E+04  0.17623935744E+04  0.00000000000E+00 0. -1.
         -1   -1    0    0    0  501 -0.00000000000E+00 -0.00000000000E+00 -0.99610057583E+02  0.99610057583E+02  0.00000000000E+00 0.  1.
         25    1    1    2    0    0  0.17183943333E+03 -0.15923145078E+03  0.34683127570E+03  0.43680702784E+03  0.12500000000E+03 0.  0.
          2    1    1    2  502    0 -0.24590384698E+03  0.83202828367E+02  0.27250442133E+03  0.37636428132E+03  0.00000000000E+00 0.  1.
         -2    1    1    2    0  501  0.74064413644E+02  0.76028622410E+02  0.10434478198E+04  0.10488323228E+04  0.00000000000E+00 0. -1.
<mgrwt>
<rscale>  4 0.83797882E+03</rscale>
<asrwt>0</asrwt>
<pdfrwt beam="1">  1        1 0.27113745E+00 0.83797882E+03</pdfrwt>
<pdfrwt beam="2">  1       -1 0.15324626E-01 0.83797882E+03</pdfrwt>
<totfact> 0.13961251E+02</totfact>
</mgrwt>
</event>
<event>
 5    0  0.5719562E-003  0.4910127E+03  0.7546771E-02  0.1016152E+00
         -1   -1    0    0    0  501 -0.00000000000E+00  0.00000000000E+00  0.29688895902E+03  0.29688895902E+03  0.00000000000E+00 0. -1.
          1   -1    0    0  502    0  0.00000000000E+00 -0.00000000000E+00 -0.20301652194E+03  0.20301652194E+03  0.00000000000E+00 0.  1.
         25    1    1    2    0    0  0.11091235511E+03 -0.16727330921E+03 -0.39185739793E+02  0.23967150998E+03  0.12500000000E+03 0.  0.
          2    1    1    2  502    0  0.74547629081E+01  0.49437170478E+02  0.59542930957E+02  0.77749391907E+02  0.00000000000E+00 0. -1.
         -2    1    1    2    0  501 -0.11836711802E+03  0.11783613873E+03  0.73515245910E+02  0.18248457908E+03  0.00000000000E+00 0.  1.
<mgrwt>
<rscale>  4 0.49101268E+03</rscale>
<asrwt>0</asrwt>
<pdfrwt beam="1">  1        1 0.31233311E-01 0.49101268E+03</pdfrwt>
<pdfrwt beam="2">  1       -1 0.45675225E-01 0.49101268E+03</pdfrwt>
<totfact> 0.69990107E+02</totfact>
</mgrwt>
</event>
<event>
 5    0  0.5719562E-003  0.6559665E+03  0.7546771E-02  0.9795647E-01
          2   -1    0    0  502    0  0.00000000000E+00  0.00000000000E+00  0.22028717196E+03  0.22028717196E+03  0.00000000000E+00 0. -1.
         -2   -1    0    0    0  501 -0.00000000000E+00 -0.00000000000E+00 -0.48833082098E+03  0.48833082098E+03  0.00000000000E+00 0.  1.
         25    1    1    2    0    0 -0.14602135980E+03  0.26179493389E+03 -0.15998407143E+03  0.36204796372E+03  0.12500000000E+03 0.  0.
          2    1    1    2  502    0  0.97190481618E+01 -0.84103149625E+02  0.22159256630E+02  0.87514754918E+02  0.00000000000E+00 0. -1.
         -2    1    1    2    0  501  0.13630231164E+03 -0.17769178426E+03 -0.13021883422E+03  0.25905527429E+03  0.00000000000E+00 0.  1.
<mgrwt>
<rscale>  4 0.65596651E+03</rscale>
<asrwt>0</asrwt>
<pdfrwt beam="1">  1        2 0.33890334E-01 0.65596651E+03</pdfrwt>
<pdfrwt beam="2">  1       -2 0.75127818E-01 0.65596651E+03</pdfrwt>
<totfact> 0.24930007E+02</totfact>
</mgrwt>
</event>
<event>
 5    0  0.5719562E-003  0.1128278E+04  0.7546771E-02  0.9178061E-01
         -1   -1    0    0    0  501 -0.00000000000E+00  0.00000000000E+00  0.22971483328E+03  0.22971483328E+03  0.00000000000E+00 0.  1.
          1   -1    0    0  502    0  0.00000000000E+00 -0.00000000000E+00 -0.13854246633E+04  0.13854246633E+04  0.00000000000E+00 0. -1.
         25    1    1    2    0    0  0.20752695603E+03 -0.31127956182E+03 -0.49036053984E+01  0.39447616966E+03  0.12500000000E+03 0.  0.
          3    1    1    2  502    0 -0.12581423052E+03  0.89486251434E+02 -0.29686218302E+03  0.33461046831E+03  0.00000000000E+00 0.  1.
         -3    1    1    2    0  501 -0.81712725505E+02  0.22179331038E+03 -0.85394404157E+03  0.88605285857E+03  0.00000000000E+00 0. -1.
<mgrwt>
<rscale>  4 0.11282776E+04</rscale>
<asrwt>0</asrwt>
<pdfrwt beam="1">  1        1 0.21314226E+00 0.11282776E+04</pdfrwt>
<pdfrwt beam="2">  1       -1 0.35340743E-01 0.11282776E+04</pdfrwt>
<totfact> 0.59636883E+01</totfact>
</mgrwt>
</event>
<event>
 5    0  0.5719562E-003  0.6065213E+03  0.7546771E-02  0.9891968E-01
         -1   -1    0    0    0  501 -0.00000000000E+00  0.00000000000E+00  0.30181571006E+02  0.30181571006E+02  0.00000000000E+00 0.  1.
          1   -1    0    0  502    0  0.00000000000E+00 -0.00000000000E+00 -0.30471249990E+04  0.30471249990E+04  0.00000000000E+00 0. -1.
         25    1    1    2    0    0  0.23085216102E+03  0.86407555332E+02 -0.17168856380E+04  0.17389882920E+04  0.12500000000E+03 0.  0.
          1    1    1    2  502    0 -0.16660713723E+03 -0.45394995978E+02 -0.12008990378E+04  0.12132506513E+04  0.00000000000E+00 0. -1.
         -1    1    1    2    0  501 -0.64245023788E+02 -0.41012559354E+02 -0.99158752120E+02  0.12506762662E+03  0.00000000000E+00 0.  1.
<mgrwt>
<rscale>  4 0.60652129E+03</rscale>
<asrwt>0</asrwt>
<pdfrwt beam="1">  1        1 0.46878846E+00 0.60652129E+03</pdfrwt>
<pdfrwt beam="2">  1       -1 0.46433187E-02 0.60652129E+03</pdfrwt>
<totfact> 0.12376247E+02</totfact>
</mgrwt>
</event>
<event>
 5    0  0.5719562E-003  0.4837000E+03  0.7546771E-02  0.1018123E+00
         -2   -1    0    0    0  501 -0.00000000000E+00  0.00000000000E+00  0.38597487890E+02  0.38597487890E+02  0.00000000000E+00 0.  1.
          2   -1    0    0  502    0  0.00000000000E+00 -0.00000000000E+00 -0.15154202407E+04  0.15154202407E+04  0.00000000000E+00 0. -1.
         25    1    1    2    0    0 -0.20985543549E+03  0.42351896525E+02 -0.94606335221E+03  0.97800503748E+03  0.12500000000E+03 0.  0.
          2    1    1    2  502    0  0.12601219286E+03 -0.67065504546E+01 -0.37383373120E+03  0.39455761196E+03  0.00000000000E+00 0. -1.
         -2    1    1    2    0  501  0.83843242636E+02 -0.35645346071E+02 -0.15692566936E+03  0.18145507911E+03  0.00000000000E+00 0.  1.
<mgrwt>
<rscale>  4 0.48369997E+03</rscale>
<asrwt>0</asrwt>
<pdfrwt beam="1">  1        2 0.23314160E+00 0.48369997E+03</pdfrwt>
<pdfrwt beam="2">  1       -2 0.59380744E-02 0.48369997E+03</pdfrwt>
<totfact> 0.20020234E+03</totfact>
</mgrwt>
</event>
<event>
 5    0  0.5719562E-003  0.7504505E+03  0.7546771E-02  0.9634644E-01
         -2   -1    0    0    0  501 -0.00000000000E+00  0.00000000000E+00  0.20998460974E+03  0.20998460974E+03  0.00000000000E+00 0. -1.
          2   -1    0    0  502    0  0.00000000000E+00 -0.00000000000E+00 -0.67049676636E+03  0.67049676636E+03  0.00000000000E+00 0.  1.
         25    1    1    2    0    0 -0.12022007301E+03 -0.22041159273E+03 -0.53550948104E+03  0.60450768436E+03  0.12500000000E+03 0.  0.
          3    1    1    2  502    0  0.83831987229E+02  0.21237308099E+03  0.64860688060E+02  0.23735424258E+03  0.00000000000E+00 0. -1.
         -3    1    1    2    0  501  0.36388085782E+02  0.80385117399E+01  0.10136636358E+02  0.38619449174E+02  0.00000000000E+00 0.  1.
<mgrwt>
<rscale>  4 0.75045054E+03</rscale>
<asrwt>0</asrwt>
<pdfrwt beam="1">  1        2 0.10315335E+00 0.75045054E+03</pdfrwt>
<pdfrwt beam="2">  1       -2 0.32305325E-01 0.75045054E+03</pdfrwt>
<totfact> 0.38820703E+02</totfact>
</mgrwt>
</event>
<event>
 5    0  0.5719562E-003  0.9256997E+03  0.7546771E-02  0.9394014E-01
         -2   -1    0    0    0  501 -0.00000000000E+00  0.00000000000E+00  0.13786110936E+03  0.13786110936E+03  0.00000000000E+00 0.  1.
          2   -1    0    0  502    0  0.00000000000E+00 -0.00000000000E+00 -0.15539551079E+04  0.15539551079E+04  0.00000000000E+00 0. -1.
         25    1    1    2    0    0  0.26356136103E+03  0.25420493028E+03 -0.86028382534E+03  0.94329104615E+03  0.12500000000E+03 0.  0.
          3    1    1    2  502    0  0.49262363960E+02  0.29966031574E+02 -0.15773237172E+03  0.16794119400E+03  0.00000000000E+00 0. -1.
         -3    1    1    2    0  501 -0.31282372499E+03 -0.28417096185E+03 -0.39807780151E+03  0.58058397716E+03  0.00000000000E+00 0.  1.
<mgrwt>
<rscale>  4 0.92569968E+03</rscale>
<asrwt>0</asrwt>
<pdfrwt beam="1">  1        2 0.23907002E+00 0.92569968E+03</pdfrwt>
<pdfrwt beam="2">  1       -2 0.21209401E-01 0.92569968E+03</pdfrwt>
<totfact> 0.22846449E+02</totfact>
</mgrwt>
</event>
<event>
 5    0  0.5719562E-003  0.6795703E+03  0.7546771E-02  0.9752822E-01
         -2   -1    0    0    0  501 -0.00000000000E+00  0.00000000000E+00  0.10873763669E+03  0.10873763669E+03  0.00000000000E+00 0.  1.
          2   -1    0    0  502    0  0.00000000000E+00 -0.00000000000E+00 -0.10617661332E+04  0.10617661332E+04  0.00000000000E+00 0. -1.
         25    1    1    2    0    0  0.27685483582E+02 -0.29416132951E+03 -0.54040320701E+03  0.62845684015E+03  0.12500000000E+03 0.  0.
          1    1    1    2  502    0  0.41824745382E+02  0.79033506313E+02 -0.24227276777E+02  0.92642136128E+02  0.00000000000E+00 0.  1.
         -1    1    1    2    0  501 -0.69510228964E+02  0.21512782320E+03 -0.38839801271E+03  0.44940479361E+03  0.00000000000E+00 0. -1.
<mgrwt>
<rscale>  4 0.67957028E+03</rscale>
<asrwt>0</asrwt>
<pdfrwt beam="1">  1        2 0.16334864E+00 0.67957028E+03</pdfrwt>
<pdfrwt beam="2">  1       -2 0.16728866E-01 0.67957028E+03</pdfrwt>
<totfact> 0.67487820E+02</totfact>
</mgrwt>
</event>
<event>
 5    0  0.5719562E-003  0.6286562E+03  0.7546771E-02  0.9847675E-01
         -2   -1    0    0    0  501 -0.00000000000E+00  0.00000000000E+00  0.50007886731E+02  0.50007886731E+02  0.00000000000E+00 0. -1.
          2   -1    0    0  502    0  0.00000000000E+00 -0.00000000000E+00 -0.19757314547E+04  0.19757314547E+04  0.00000000000E+00 0.  1.
         25    1    1    2    0    0 -0.16820374972E+03 -0.20765690515E+03 -0.64261259750E+03  0.70709959846E+03  0.12500000000E+03 0.  0.
          2    1    1    2  502    0  0.19315513312E+03  0.16582343291E+03 -0.10407193551E+04  0.10714023952E+04  0.00000000000E+00 0. -1.
         -2    1    1    2    0  501 -0.24951383402E+02  0.41833472240E+02 -0.24239161535E+03  0.24723734776E+03  0.00000000000E+00 0.  1.
<mgrwt>
<rscale>  4 0.62865620E+03</rscale>
<asrwt>0</asrwt>
<pdfrwt beam="1">  1        2 0.30395861E+00 0.62865620E+03</pdfrwt>
<pdfrwt beam="2">  1       -2 0.76935230E-02 0.62865620E+03</pdfrwt>
<totfact> 0.74418733E+02</totfact>
</mgrwt>
</event>
<event>
 5    0  0.5719562E-003  0.7024741E+03  0.7546771E-02  0.9713010E-01
          2   -1    0    0  502    0  0.00000000000E+00  0.00000000000E+00  0.74323044318E+03  0.74323044318E+03  0.00000000000E+00 0. -1.
         -2   -1    0    0    0  501 -0.00000000000E+00 -0.00000000000E+00 -0.16598819445E+03  0.16598819445E+03  0.00000000000E+00 0.  1.
         25    1    1    2    0    0 -0.24437577727E+03  0.13585947684E+03  0.41221508492E+03  0.51354025567E+03  0.12500000000E+03 0.  0.
          1    1    1    2  502    0  0.13693201289E+03 -0.23699948377E+02  0.19303545292E+03  0.23785447188E+03  0.00000000000E+00 0. -1.
         -1    1    1    2    0  501  0.10744376438E+03 -0.11215952847E+03 -0.28008289112E+02  0.15782391007E+03  0.00000000000E+00 0.  1.
<mgrwt>
<rscale>  4 0.70247414E+03</rscale>
<asrwt>0</asrwt>
<pdfrwt beam="1">  1        2 0.11434314E+00 0.70247414E+03</pdfrwt>
<pdfrwt beam="2">  1       -2 0.25536646E-01 0.70247414E+03</pdfrwt>
<totfact> 0.52637867E+02</totfact>
</mgrwt>
</event>
<event>
 5    0  0.5719562E-003  0.9293707E+03  0.7546771E-02  0.9389593E-01
          2   -1    0    0  502    0  0.00000000000E+00  0.00000000000E+00  0.24428923007E+04  0.24428923007E+04  0.00000000000E+00 0. -1.
         -2   -1    0    0    0  501 -0.00000000000E+00 -0.00000000000E+00 -0.88392134475E+02  0.88392134475E+02  0.00000000000E+00 0.  1.
         25    1    1    2    0    0  0.32761744923E+03  0.21032665437E+03  0.57540416024E+03  0.70589336461E+03  0.12500000000E+03 0.  0.
          1    1    1    2  502    0 -0.81872199795E+02 -0.27240130559E+01  0.25974497315E+03  0.27235625277E+03  0.00000000000E+00 0.  1.
         -1    1    1    2    0  501 -0.24574524944E+03 -0.20760264131E+03  0.15193510328E+04  0.15530348178E+04  0.00000000000E+00 0. -1.
<mgrwt>
<rscale>  4 0.92937068E+03</rscale>
<asrwt>0</asrwt>
<pdfrwt beam="1">  1        2 0.37582953E+00 0.92937068E+03</pdfrwt>
<pdfrwt beam="2">  1       -2 0.13598792E-01 0.92937068E+03</pdfrwt>
<totfact> 0.15813685E+02</totfact>
</mgrwt>
</event>
<event>
 5    0  0.5719562E-003  0.5441505E+03  0.7546771E-02  0.1002857E+00
         -1   -1    0    0    0  501 -0.00000000000E+00  0.00000000000E+00  0.88575961055E+02  0.88575961055E+02  0.00000000000E+00 0.  1.
          1   -1    0    0  502    0  0.00000000000E+00 -0.00000000000E+00 -0.83572264965E+03  0.83572264965E+03  0.00000000000E+00 0. -1.
         25    1    1    2    0    0  0.59787700805E+02 -0.24214946965E+03 -0.36753066724E+03  0.46142683730E+03  0.12500000000E+03 0.  0.
          1    1    1    2  502    0 -0.29862450187E+02  0.16710385122E+03 -0.32078199149E+03  0.36292774637E+03  0.00000000000E+00 0. -1.
         -1    1    1    2    0  501 -0.29925250618E+02  0.75045618427E+02 -0.58834029863E+02  0.99944027033E+02  0.00000000000E+00 0.  1.
<mgrwt>
<rscale>  4 0.54415048E+03</rscale>
<asrwt>0</asrwt>
<pdfrwt beam="1">  1        1 0.12857272E+00 0.54415048E+03</pdfrwt>
<pdfrwt beam="2">  1       -1 0.13627071E-01 0.54415048E+03</pdfrwt>
<totfact> 0.80062550E+02</totfact>
</mgrwt>
</event>
<event>
 5    0  0.5719562E-003  0.4807149E+03  0.7546771E-02  0.1018939E+00
         -2   -1    0    0    0  501 -0.00000000000E+00  0.00000000000E+00  0.18266299010E+02  0.18266299010E+02  0.00000000000E+00 0. -1.
          2   -1    0    0  502    0  0.00000000000E+00 -0.00000000000E+00 -0.31627482675E+04  0.31627482675E+04  0.00000000000E+00 0.  1.
         25    1    1    2    0    0  0.13296106015E+03 -0.17540766172E+03 -0.15736929288E+04  0.15939199872E+04  0.12500000000E+03 0.  0.
          2    1    1    2  502    0 -0.97163247599E+02  0.10524634989E+03 -0.84628423601E+03  0.85832074364E+03  0.00000000000E+00 0. -1.
         -2    1    1    2    0  501 -0.35797812547E+02  0.70161311823E+02 -0.72450480364E+03  0.72877383567E+03  0.00000000000E+00 0.  1.
<mgrwt>
<rscale>  4 0.48071491E+03</rscale>
<asrwt>0</asrwt>
<pdfrwt beam="1">  1        2 0.48657664E+00 0.48071491E+03</pdfrwt>
<pdfrwt beam="2">  1       -2 0.28101999E-02 0.48071491E+03</pdfrwt>
<totfact> 0.74996599E+02</totfact>
</mgrwt>
</event>
<event>
 5    0  0.5719562E-003  0.7539375E+03  0.7546771E-02  0.9629193E-01
         -2   -1    0    0    0  501 -0.00000000000E+00  0.00000000000E+00  0.14596687882E+04  0.14596687882E+04  0.00000000000E+00 0.  1.
          2   -1    0    0  502    0  0.00000000000E+00 -0.00000000000E+00 -0.97354581631E+02  0.97354581631E+02  0.00000000000E+00 0. -1.
         25    1    1    2    0    0  0.26314468738E+03 -0.24811024575E+03  0.60405952686E+03  0.71506414574E+03  0.12500000000E+03 0.  0.
          3    1    1    2  502    0 -0.22911935307E+03  0.22084960215E+03  0.70220757782E+03  0.77095117035E+03  0.00000000000E+00 0.  1.
         -3    1    1    2    0  501 -0.34025334311E+02  0.27260643593E+02  0.56047101892E+02  0.71008053730E+02  0.00000000000E+00 0. -1.
<mgrwt>
<rscale>  4 0.75393752E+03</rscale>
<asrwt>0</asrwt>
<pdfrwt beam="1">  1        2 0.14977629E-01 0.75393752E+03</pdfrwt>
<pdfrwt beam="2">  1       -2 0.22456441E+00 0.75393752E+03</pdfrwt>
<totfact> 0.37958492E+01</totfact>
</mgrwt>
</event>
<event>
 5    0  0.5719562E-003  0.7133775E+03  0.7546771E-02  0.9694624E-01
         -2   -1    0    0    0  501 -0.00000000000E+00  0.00000000000E+00  0.59796826397E+02  0.59796826397E+02  0.00000000000E+00 0.  1.
          2   -1    0    0  502    0  0.00000000000E+00 -0.00000000000E+00 -0.21276525766E+04  0.21276525766E+04  0.00000000000E+00 0. -1.
         25    1    1    2    0    0  0.22975427352E+02  0.23249016859E+03 -0.17829680803E+04  0.18025481198E+04  0.12500000000E+03 0.  0.
          1    1    1    2  502    0 -0.27543624247E+02 -0.65858288345E+02 -0.16437376590E+03  0.17920574851E+03  0.00000000000E+00 0. -1.
         -1    1    1    2    0  501  0.45681968947E+01 -0.16663188025E+03 -0.12051390397E+03  0.20569553468E+03  0.00000000000E+00 0.  1.
<mgrwt>
<rscale>  4 0.71337752E+03</rscale>
<asrwt>0</asrwt>
<pdfrwt beam="1">  1        2 0.32733112E+00 0.71337752E+03</pdfrwt>
<pdfrwt beam="2">  1       -2 0.91995131E-02 0.71337752E+03</pdfrwt>
<totfact> 0.45890188E+02</totfact>
</mgrwt>
</event>
<event>
 5    0  0.5719562E-003  0.8177071E+03  0.7546771E-02  0.9534735E-01
         -1   -1    0    0    0  501 -0.00000000000E+00  0.00000000000E+00  0.63485980141E+03  0.63485980141E+03  0.00000000000E+00 0. -1.
          1   -1    0    0  502    0  0.00000000000E+00 -0.00000000000E+00 -0.26330418426E+03  0.26330418426E+03  0.00000000000E+00 0.  1.
         25    1    1    2    0    0  0.22457605828E+03 -0.65061363144E+02  0.10078341855E+03  0.28363653569E+03  0.12500000000E+03 0.  0.
          3    1    1    2  502    0 -0.23435885904E+02 -0.78077845858E+02 -0.12431051783E+03  0.14865562756E+03  0.00000000000E+00 0.  1.
         -3    1    1    2    0  501 -0.20114017237E+03  0.14313920900E+03  0.39508271644E+03  0.46587182242E+03  0.00000000000E+00 0. -1.
<mgrwt>
<rscale>  4 0.81770714E+03</rscale>
<asrwt>0</asrwt>
<pdfrwt beam="1">  1        1 0.40508336E-01 0.81770714E+03</pdfrwt>
<pdfrwt beam="2">  1       -1 0.97670739E-01 0.81770714E+03</pdfrwt>
<totfact> 0.10579642E+02</totfact>
</mgrwt>
</event>
<event>
 5    0  0.5719562E-003  0.6693863E+03  0.7546771E-02  0.9771067E-01
         -1   -1    0    0    0  501 -0.00000000000E+00  0.00000000000E+00  0.29710633931E+03  0.29710633931E+03  0.00000000000E+00 0.  1.
          1   -1    0    0  502    0  0.00000000000E+00 -0.00000000000E+00 -0.37703503379E+03  0.37703503379E+03  0.00000000000E+00 0. -1.
         25    1    1    2    0    0 -0.18111298417E+03 -0.15403048489E+03 -0.10207267988E+03  0.28735193629E+03  0.12500000000E+03 0.  0.
          2    1    1    2  502    0  0.21395815406E+02 -0.65780210167E+02 -0.71414848828E+02  0.99422822327E+02  0.00000000000E+00 0. -1.
         -2    1    1    2    0  501  0.15971716877E+03  0.21981069505E+03  0.93558834230E+02  0.28736661449E+03  0.00000000000E+00 0.  1.
<mgrwt>
<rscale>  4 0.66938628E+03</rscale>
<asrwt>0</asrwt>
<pdfrwt beam="1">  1        1 0.58005390E-01 0.66938628E+03</pdfrwt>
<pdfrwt beam="2">  1       -1 0.45708668E-01 0.66938628E+03</pdfrwt>
<totfact> 0.31284947E+02</totfact>
</mgrwt>
</event>
<event>
 5    0  0.5719562E-003  0.5373573E+03  0.7546771E-02  0.1004463E+00
         -2   -1    0    0    0  501 -0.00000000000E+00  0.00000000000E+00  0.38601733429E+03  0.38601733429E+03  0.00000000000E+00 0.  1.
          2   -1    0    0  502    0  0.00000000000E+00 -0.00000000000E+00 -0.18700769379E+03  0.18700769379E+03  0.00000000000E+00 0. -1.
         25    1    1    2    0    0  0.85842843789E+01  0.21573024035E+03  0.42592971346E+01  0.24951226052E+03  0.12500000000E+03 0.  0.
          3    1    1    2  502    0 -0.57162294551E+02 -0.11555180177E+03  0.16284235636E+03  0.20769540158E+03  0.00000000000E+00 0.  1.
         -3    1    1    2    0  501  0.48578010172E+02 -0.10017843858E+03  0.31907987001E+02  0.11581736598E+03  0.00000000000E+00 0. -1.
<mgrwt>
<rscale>  4 0.53735728E+03</rscale>
<asrwt>0</asrwt>
<pdfrwt beam="1">  1        2 0.28770414E-01 0.53735728E+03</pdfrwt>
<pdfrwt beam="2">  1       -2 0.59387282E-01 0.53735728E+03</pdfrwt>
<totfact> 0.49814670E+02</totfact>
</mgrwt>
</event>
<event>
 5    0  0.5719562E-003  0.6957008E+03  0.7546771E-02  0.9724613E-01
          1   -1    0    0  502    0  0.00000000000E+00  0.00000000000E+00  0.17107820809E+04  0.17107820809E+04  0.00000000000E+00 0.  1.
         -1   -1    0    0    0  501 -0.00000000000E+00 -0.00000000000E+00 -0.70727838006E+02  0.70727838006E+02  0.00000000000E+00 0. -1.
         25    1    1    2    0    0  0.47697084364E+02 -0.24600147633E+03  0.94168892028E+03  0.98244326085E+03  0.12500000000E+03 0.  0.
          3    1    1    2  502    0 -0.21990327539E+02  0.22331963432E+03  0.20324307864E+03  0.30275895130E+03  0.00000000000E+00 0. -1.
         -3    1    1    2    0  501 -0.25706756825E+02  0.22681842007E+02  0.49512224401E+03  0.49630770679E+03  0.00000000000E+00 0.  1.
<mgrwt>
<rscale>  4 0.69570085E+03</rscale>
<asrwt>0</asrwt>
<pdfrwt beam="1">  1        1 0.26319721E+00 0.69570085E+03</pdfrwt>
<pdfrwt beam="2">  1       -1 0.10881207E-01 0.69570085E+03</pdfrwt>
<totfact> 0.26541133E+02</totfact>
</mgrwt>
</event>
<event>
 5    0  0.5719562E-003  0.1236901E+04  0.7546771E-02  0.9081156E-01
         -2   -1    0    0    0  501 -0.00000000000E+00  0.00000000000E+00  0.48604268373E+03  0.48604268373E+03  0.00000000000E+00 0. -1.
          2   -1    0    0  502    0  0.00000000000E+00 -0.00000000000E+00 -0.78692893023E+03  0.78692893023E+03  0.00000000000E+00 0.  1.
         25    1    1    2    0    0  0.39643283574E+03  0.27010735617E+03  0.22427253327E+03  0.54409571427E+03  0.12500000000E+03 0.  0.
          4    1    1    2  502    0 -0.66745271470E+02 -0.10350633942E+03 -0.20933346730E+03  0.24287649968E+03  0.00000000000E+00 0. -1.
         -4    1    1    2    0  501 -0.32968756427E+03 -0.16660101675E+03 -0.31582531247E+03  0.48599940001E+03  0.00000000000E+00 0.  1.
<mgrwt>
<rscale>  4 0.12369010E+04</rscale>
<asrwt>0</asrwt>
<pdfrwt beam="1">  1        2 0.12106599E+00 0.12369010E+04</pdfrwt>
<pdfrwt beam="2">  1       -2 0.74775798E-01 0.12369010E+04</pdfrwt>
<totfact> 0.55736205E+01</totfact>
</mgrwt>
</event>
<event>
 5    0  0.5719562E-003  0.6073718E+03  0.7546771E-02  0.9890229E-01
         -1   -1    0    0    0  501 -0.00000000000E+00  0.00000000000E+00  0.25483034655E+03  0.25483034655E+03  0.00000000000E+00 0.  1.
          1   -1    0    0  502    0  0.00000000000E+00 -0.00000000000E+00 -0.36190792552E+03  0.36190792552E+03  0.00000000000E+00 0. -1.
         25    1    1    2    0    0  0.17988228059E+03 -0.10333401239E+03 -0.11736386735E+03  0.26913719614E+03  0.12500000000E+03 0.  0.
          4    1    1    2  502    0 -0.58449562497E+02  0.94407732918E+02  0.13399517931E+03  0.17402264068E+03  0.00000000000E+00 0.  1.
         -4    1    1    2    0  501 -0.12143271810E+03  0.89262794752E+01 -0.12370889093E+03  0.17357843525E+03  0.00000000000E+00 0. -1.
<mgrwt>
<rscale>  4 0.60737179E+03</rscale>
<asrwt>0</asrwt>
<pdfrwt beam="1">  1        1 0.55678142E-01 0.60737179E+03</pdfrwt>
<pdfrwt beam="2">  1       -1 0.39204669E-01 0.60737179E+03</pdfrwt>
<totfact> 0.43819010E+02</totfact>
</mgrwt>
</event>
<event>
 5    0  0.5719562E-003  0.7527412E+03  0.7546771E-02  0.9631060E-01
          2   -1    0    0  502    0  0.00000000000E+00  0.00000000000E+00  0.86839220617E+03  0.86839220617E+03  0.00000000000E+00 0.  1.
         -2   -1    0    0    0  501 -0.00000000000E+00 -0.00000000000E+00 -0.16312308010E+03  0.16312308010E+03  0.00000000000E+00 0. -1.
         25    1    1    2    0    0 -0.45515192820E+02 -0.25998401598E+03  0.47295251134E+03  0.55585285763E+03  0.12500000000E+03 0.  0.
          2    1    1    2  502    0 -0.13622670249E+03  0.74196472422E+02  0.83251380118E+02  0.17605005903E+03  0.00000000000E+00 0. -1.
         -2    1    1    2    0  501  0.18174189531E+03  0.18578754356E+03  0.14906523461E+03  0.29961236961E+03  0.00000000000E+00 0.  1.
<mgrwt>
<rscale>  4 0.75274115E+03</rscale>
<asrwt>0</asrwt>
<pdfrwt beam="1">  1        2 0.13359880E+00 0.75274115E+03</pdfrwt>
<pdfrwt beam="2">  1       -2 0.25095859E-01 0.75274115E+03</pdfrwt>
<totfact> 0.44107024E+02</totfact>
</mgrwt>
</event>
<event>
 5    0  0.5719562E-003  0.6624708E+03  0.7546771E-02  0.9783656E-01
         -2   -1    0    0    0  501 -0.00000000000E+00  0.00000000000E+00  0.82449376713E+02  0.82449376713E+02  0.00000000000E+00 0. -1.
          2   -1    0    0  502    0  0.00000000000E+00 -0.00000000000E+00 -0.13307181438E+04  0.13307181438E+04  0.00000000000E+00 0.  1.
         25    1    1    2    0    0 -0.27368912427E+02  0.28681798051E+03 -0.57207700903E+03  0.65261835369E+03  0.12500000000E+03 0.  0.
          1    1    1    2  502    0  0.62215985949E+01 -0.20554814649E+03 -0.23867787647E+03  0.31504900814E+03  0.00000000000E+00 0. -1.
         -1    1    1    2    0  501  0.21147313832E+02 -0.81269834027E+02 -0.43751388163E+03  0.44550015872E+03  0.00000000000E+00 0.  1.
<mgrwt>
<rscale>  4 0.66247077E+03</rscale>
<asrwt>0</asrwt>
<pdfrwt beam="1">  1        2 0.20472586E+00 0.66247077E+03</pdfrwt>
<pdfrwt beam="2">  1       -2 0.12684520E-01 0.66247077E+03</pdfrwt>
<totfact> 0.74598494E+02</totfact>
</mgrwt>
</event>
<event>
 5    0  0.5719562E-003  0.7970036E+03  0.7546771E-02  0.9564364E-01
         -1   -1    0    0    0  501 -0.00000000000E+00  0.00000000000E+00  0.57045506722E+02  0.57045506722E+02  0.00000000000E+00 0. -1.
          1   -1    0    0  502    0  0.00000000000E+00 -0.00000000000E+00 -0.27838069275E+04  0.27838069275E+04  0.00000000000E+00 0.  1.
         25    1    1    2    0    0 -0.22418296827E+03 -0.15552903340E+03 -0.62859670310E+03  0.69656736834E+03  0.12500000000E+03 0.  0.
          2    1    1    2  502    0  0.59934869568E+02  0.47368472968E+02 -0.16847111955E+04  0.16864423421E+04  0.00000000000E+00 0.  1.
         -2    1    1    2    0  501  0.16424809871E+03  0.10816056043E+03 -0.41345352220E+03  0.45784272385E+03  0.00000000000E+00 0. -1.
<mgrwt>
<rscale>  4 0.79700358E+03</rscale>
<asrwt>0</asrwt>
<pdfrwt beam="1">  1        1 0.42827801E+00 0.79700358E+03</pdfrwt>
<pdfrwt beam="2">  1       -1 0.87762314E-02 0.79700358E+03</pdfrwt>
<totfact> 0.69363860E+01</totfact>
</mgrwt>
</event>
<event>
 5    0  0.5719562E-003  0.6138082E+03  0.7546771E-02  0.9877165E-01
         -2   -1    0    0    0  501 -0.00000000000E+00  0.00000000000E+00  0.87063818734E+02  0.87063818734E+02  0.00000000000E+00 0.  1.
          2   -1    0    0  502    0  0.00000000000E+00 -0.00000000000E+00 -0.10818516612E+04  0.10818516612E+04  0.00000000000E+00 0. -1.
         25    1    1    2    0    0 -0.24517772938E+03  0.78234984214E+02 -0.70126611758E+03  0.75738497437E+03  0.12500000000E+03 0.  0.
          2    1    1    2  502    0  0.21116483531E+02 -0.37684834910E+02 -0.42707932422E+01  0.43408436206E+02  0.00000000000E+00 0.  1.
         -2    1    1    2    0  501  0.22406124585E+03 -0.40550149303E+02 -0.28925093169E+03  0.36812206941E+03  0.00000000000E+00 0. -1.
<mgrwt>
<rscale>  4 0.61380823E+03</rscale>
<asrwt>0</asrwt>
<pdfrwt beam="1">  1        2 0.16643872E+00 0.61380823E+03</pdfrwt>
<pdfrwt beam="2">  1       -2 0.13394434E-01 0.61380823E+03</pdfrwt>
<totfact> 0.95657432E+02</totfact>
</mgrwt>
</event>
<event>
 5    0  0.5719562E-003  0.6352535E+03  0.7546771E-02  0.9834850E-01
          2   -1    0    0  502    0  0.00000000000E+00  0.00000000000E+00  0.16336923360E+04  0.16336923360E+04  0.00000000000E+00 0. -1.
         -2   -1    0    0    0  501 -0.00000000000E+00 -0.00000000000E+00 -0.61753819487E+02  0.61753819487E+02  0.00000000000E+00 0.  1.
         25    1    1    2    0    0  0.20413369704E+03  0.10486122373E+03  0.12101844336E+04  0.12380782713E+04  0.12500000000E+03 0.  0.
          4    1    1    2  502    0 -0.21843454081E+03 -0.67806553603E+02  0.34573464895E+03  0.41454049840E+03  0.00000000000E+00 0.  1.
         -4    1    1    2    0  501  0.14300843767E+02 -0.37054670129E+02  0.16019433981E+02  0.42827385817E+02  0.00000000000E+00 0. -1.
<mgrwt>
<rscale>  4 0.63525347E+03</rscale>
<asrwt>0</asrwt>
<pdfrwt beam="1">  1        2 0.25133725E+00 0.63525347E+03</pdfrwt>
<pdfrwt beam="2">  1       -2 0.95005888E-02 0.63525347E+03</pdfrwt>
<totfact> 0.81327779E+02</totfact>
</mgrwt>
</event>
<event>
 5    0  0.5719562E-003  0.5467361E+03  0.7546771E-02  0.1002252E+00
          1   -1    0    0  502    0  0.00000000000E+00  0.00000000000E+00  0.54611550456E+03  0.54611550456E+03  0.00000000000E+00 0. -1.
         -1   -1    0    0    0  501 -0.00000000000E+00 -0.00000000000E+00 -0.13683936006E+03  0.13683936006E+03  0.00000000000E+00 0.  1.
         25    1    1    2    0    0 -0.14602908423E+03 -0.18959424967E+03  0.13360987980E+03  0.30124254834E+03  0.12500000000E+03 0.  0.
          4    1    1    2  502    0 -0.14811270335E+02  0.45948757992E+02  0.46291975179E+02  0.66885043589E+02  0.00000000000E+00 0.  1.
         -4    1    1    2    0  501  0.16084035457E+03  0.14364549167E+03  0.22937428952E+03  0.31482727269E+03  0.00000000000E+00 0. -1.
<mgrwt>
<rscale>  4 0.54673612E+03</rscale>
<asrwt>0</asrwt>
<pdfrwt beam="1">  1        1 0.84017769E-01 0.54673612E+03</pdfrwt>
<pdfrwt beam="2">  1       -1 0.21052210E-01 0.54673612E+03</pdfrwt>
<totfact> 0.74059776E+02</totfact>
</mgrwt>
</event>
<event>
 5    0  0.5719562E-003  0.6227821E+03  0.7546771E-02  0.9859236E-01
         -2   -1    0    0    0  501 -0.00000000000E+00  0.00000000000E+00  0.14695408142E+03  0.14695408142E+03  0.00000000000E+00 0.  1.
          2   -1    0    0  502    0  0.00000000000E+00 -0.00000000000E+00 -0.65982784575E+03  0.65982784575E+03  0.00000000000E+00 0. -1.
         25    1    1    2    0    0 -0.57156608732E+02  0.23514061936E+03 -0.45031050694E+03  0.52627230732E+03  0.12500000000E+03 0.  0.
          3    1    1    2  502    0 -0.10199825070E+02 -0.35734916081E+02 -0.59333157573E+02  0.70010315285E+02  0.00000000000E+00 0. -1.
         -3    1    1    2    0  501  0.67356433802E+02 -0.19940570328E+03 -0.32300998194E+01  0.21049930456E+03  0.00000000000E+00 0.  1.
<mgrwt>
<rscale>  4 0.62278213E+03</rscale>
<asrwt>0</asrwt>
<pdfrwt beam="1">  1        2 0.10151198E+00 0.62278213E+03</pdfrwt>
<pdfrwt beam="2">  1       -2 0.22608320E-01 0.62278213E+03</pdfrwt>
<totfact> 0.76195577E+02</totfact>
</mgrwt>
</event>
<event>
 5    0  0.5719562E-003  0.4494105E+03  0.7546771E-02  0.1027898E+00
          2   -1    0    0  502    0  0.00000000000E+00  0.00000000000E+00  0.18813237261E+04  0.18813237261E+04  0.00000000000E+00 0.  1.
         -2   -1    0    0    0  501 -0.00000000000E+00 -0.00000000000E+00 -0.26838784415E+02  0.26838784415E+02  0.00000000000E+00 0. -1.
         25    1    1    2    0    0  0.50453811652E+02 -0.19456631317E+03  0.80308523833E+03  0.83724102704E+03  0.12500000000E+03 0.  0.
          4    1    1    2  502    0  0.41912025823E+01  0.25046457681E+02  0.13863252228E+03  0.14093923321E+03  0.00000000000E+00 0.  1.
         -4    1    1    2    0  501 -0.54645014234E+02  0.16951985549E+03  0.91276718110E+03  0.92998225031E+03  0.00000000000E+00 0. -1.
<mgrwt>
<rscale>  4 0.44941047E+03</rscale>
<asrwt>0</asrwt>
<pdfrwt beam="1">  1        2 0.28943432E+00 0.44941047E+03</pdfrwt>
<pdfrwt beam="2">  1       -2 0.41290452E-02 0.44941047E+03</pdfrwt>
<totfact> 0.22289834E+03</totfact>
</mgrwt>
</event>
<event>
 5    0  0.5719562E-003  0.1094338E+04  0.7546771E-02  0.9210728E-01
         -2   -1    0    0    0  501 -0.00000000000E+00  0.00000000000E+00  0.15390085978E+03  0.15390085978E+03  0.00000000000E+00 0. -1.
          2   -1    0    0  502    0  0.00000000000E+00 -0.00000000000E+00 -0.19453681495E+04  0.19453681495E+04  0.00000000000E+00 0.  1.
         25    1    1    2    0    0 -0.26881760878E+03 -0.21344848497E+03 -0.95060333858E+03  0.10183785494E+04  0.12500000000E+03 0.  0.
          1    1    1    2  502    0 -0.48801774971E+02  0.22558368657E+03 -0.60980467373E+02  0.23872207750E+03  0.00000000000E+00 0. -1.
         -1    1    1    2    0  501  0.31761938375E+03 -0.12135201593E+02 -0.77988348373E+03  0.84216838235E+03  0.00000000000E+00 0.  1.
<mgrwt>
<rscale>  4 0.10943378E+04</rscale>
<asrwt>0</asrwt>
<pdfrwt beam="1">  1        2 0.29928742E+00 0.10943378E+04</pdfrwt>
<pdfrwt beam="2">  1       -2 0.23677055E-01 0.10943378E+04</pdfrwt>
<totfact> 0.11284020E+02</totfact>
</mgrwt>
</event>
<event>
 5    0  0.5719562E-003  0.5195009E+03  0.7546771E-02  0.1008811E+00
          1   -1    0    0  502    0  0.00000000000E+00  0.00000000000E+00  0.15595791722E+03  0.15595791722E+03  0.00000000000E+00 0. -1.
         -1   -1    0    0    0  501 -0.00000000000E+00 -0.00000000000E+00 -0.43261854167E+03  0.43261854167E+03  0.00000000000E+00 0.  1.
         25    1    1    2    0    0 -0.21443386664E+03  0.35876135049E+02 -0.25048241399E+03  0.35445087099E+03  0.12500000000E+03 0.  0.
          3    1    1    2  502    0  0.17968847535E+03 -0.61019376652E+02 -0.21770777744E+02  0.19101120194E+03  0.00000000000E+00 0. -1.
         -3    1    1    2    0  501  0.34745391288E+02  0.25143241603E+02 -0.44074327136E+01  0.43114385966E+02  0.00000000000E+00 0.  1.
<mgrwt>
<rscale>  4 0.51950086E+03</rscale>
<asrwt>0</asrwt>
<pdfrwt beam="1">  1        1 0.23993526E-01 0.51950086E+03</pdfrwt>
<pdfrwt beam="2">  1       -1 0.66556698E-01 0.51950086E+03</pdfrwt>
<totfact> 0.47735109E+02</totfact>
</mgrwt>
</event>
<event>
 5    0  0.5719562E-003  0.4954220E+03  0.7546771E-02  0.1014981E+00
         -1   -1    0    0    0  501 -0.00000000000E+00  0.00000000000E+00  0.44993911930E+02  0.44993911930E+02  0.00000000000E+00 0.  1.
          1   -1    0    0  502    0  0.00000000000E+00 -0.00000000000E+00 -0.13637563367E+04  0.13637563367E+04  0.00000000000E+00 0. -1.
         25    1    1    2    0    0  0.87018502946E+02  0.19636263547E+03 -0.58420029721E+03  0.63485863917E+03  0.12500000000E+03 0.  0.
          4    1    1    2  502    0 -0.22404499716E+02 -0.16116116003E+03 -0.41028635312E+03  0.44137260072E+03  0.00000000000E+00 0.  1.
         -4    1    1    2    0  501 -0.64614003229E+02 -0.35201475447E+02 -0.32427577440E+03  0.33251900871E+03  0.00000000000E+00 0. -1.
<mgrwt>
<rscale>  4 0.49542197E+03</rscale>
<asrwt>0</asrwt>
<pdfrwt beam="1">  1        1 0.20980867E+00 0.49542197E+03</pdfrwt>
<pdfrwt beam="2">  1       -1 0.69221402E-02 0.49542197E+03</pdfrwt>
<totfact> 0.93861861E+02</totfact>
</mgrwt>
</event>
<event>
 5    0  0.5719562E-003  0.5570036E+03  0.7546771E-02  0.9998857E-01
          1   -1    0    0  502    0  0.00000000000E+00  0.00000000000E+00  0.96511447603E+03  0.96511447603E+03  0.00000000000E+00 0.  1.
         -1   -1    0    0    0  501 -0.00000000000E+00 -0.00000000000E+00 -0.80366893507E+02  0.80366893507E+02  0.00000000000E+00 0. -1.
         25    1    1    2    0    0 -0.17073732085E+03 -0.13680377525E+03  0.21212335527E+03  0.32937489811E+03  0.12500000000E+03 0.  0.
          2    1    1    2  502    0  0.71252977657E+02  0.11713053473E+03  0.46897800234E+03  0.48860711791E+03  0.00000000000E+00 0.  1.
         -2    1    1    2    0  501  0.99484343188E+02  0.19673240517E+02  0.20364622491E+03  0.22749935352E+03  0.00000000000E+00 0. -1.
<mgrwt>
<rscale>  4 0.55700360E+03</rscale>
<asrwt>0</asrwt>
<pdfrwt beam="1">  1        1 0.14847914E+00 0.55700360E+03</pdfrwt>
<pdfrwt beam="2">  1       -1 0.12364138E-01 0.55700360E+03</pdfrwt>
<totfact> 0.73519610E+02</totfact>
</mgrwt>
</event>
<event>
 5    0  0.5719562E-003  0.4801766E+03  0.7546771E-02  0.1019087E+00
         -2   -1    0    0    0  501 -0.00000000000E+00  0.00000000000E+00  0.13996996843E+03  0.13996996843E+03  0.00000000000E+00 0.  1.
          2   -1    0    0  502    0  0.00000000000E+00 -0.00000000000E+00 -0.41181978938E+03  0.41181978938E+03  0.00000000000E+00 0. -1.
         25    1    1    2    0    0  0.16030694285E+03  0.12097087859E+03 -0.69055536868E+02  0.24642633091E+03  0.12500000000E+03 0.  0.
          2    1    1    2  502    0  0.78800868750E+01 -0.40039083906E+02 -0.26752746313E+02  0.48794809606E+02  0.00000000000E+00 0.  1.
         -2    1    1    2    0  501 -0.16818702973E+03 -0.80931794686E+02 -0.17604153777E+03  0.25656861729E+03  0.00000000000E+00 0. -1.
<mgrwt>
<rscale>  4 0.48017665E+03</rscale>
<asrwt>0</asrwt>
<pdfrwt beam="1">  1        2 0.63356890E-01 0.48017665E+03</pdfrwt>
<pdfrwt beam="2">  1       -2 0.21533842E-01 0.48017665E+03</pdfrwt>
<totfact> 0.14381447E+03</totfact>
</mgrwt>
</event>
<event>
 5    0  0.5719562E-003  0.5876932E+03  0.7546771E-02  0.9931273E-01
         -2   -1    0    0    0  501 -0.00000000000E+00  0.00000000000E+00  0.55070387246E+02  0.55070387246E+02  0.00000000000E+00 0.  1.
          2   -1    0    0  502    0  0.00000000000E+00 -0.00000000000E+00 -0.15679175666E+04  0.15679175666E+04  0.00000000000E+00 0. -1.
         25    1    1    2    0    0 -0.21990563675E+03  0.10975514005E+02 -0.33852651623E+03  0.42273414006E+03  0.12500000000E+03 0.  0.
          1    1    1    2  502    0  0.91831229238E+02  0.25530823410E+02 -0.27328829261E+03  0.28943270113E+03  0.00000000000E+00 0.  1.
         -1    1    1    2    0  501  0.12807440752E+03 -0.36506337415E+02 -0.90103237051E+03  0.91082111265E+03  0.00000000000E+00 0. -1.
<mgrwt>
<rscale>  4 0.58769321E+03</rscale>
<asrwt>0</asrwt>
<pdfrwt beam="1">  1        2 0.24121806E+00 0.58769321E+03</pdfrwt>
<pdfrwt beam="2">  1       -2 0.84723682E-02 0.58769321E+03</pdfrwt>
<totfact> 0.10648701E+03</totfact>
</mgrwt>
</event>
<event>
 5    0  0.5719562E-003  0.4580886E+03  0.7546771E-02  0.1025337E+00
          1   -1    0    0  502    0  0.00000000000E+00  0.00000000000E+00  0.33925242997E+03  0.33925242997E+03  0.00000000000E+00 0. -1.
         -1   -1    0    0    0  501 -0.00000000000E+00 -0.00000000000E+00 -0.15463794567E+03  0.15463794567E+03  0.00000000000E+00 0.  1.
         25    1    1    2    0    0  0.89525665170E+02  0.18189975540E+03  0.85363479065E+02  0.25301045294E+03  0.12500000000E+03 0.  0.
          1    1    1    2  502    0 -0.41006984847E+02 -0.26936287493E+02 -0.27163246662E+01  0.49137712704E+02  0.00000000000E+00 0.  1.
         -1    1    1    2    0  501 -0.48518680323E+02 -0.15496346791E+03  0.10196732989E+03  0.19174220999E+03  0.00000000000E+00 0. -1.
<mgrwt>
<rscale>  4 0.45808863E+03</rscale>
<asrwt>0</asrwt>
<pdfrwt beam="1">  1        1 0.52192681E-01 0.45808863E+03</pdfrwt>
<pdfrwt beam="2">  1       -1 0.23790453E-01 0.45808863E+03</pdfrwt>
<totfact> 0.11377190E+03</totfact>
</mgrwt>
</event>
<event>
 5    0  0.5719562E-003  0.5947280E+03  0.7546771E-02  0.9916405E-01
         -2   -1    0    0    0  501 -0.00000000000E+00  0.00000000000E+00  0.60574672103E+02  0.60574672103E+02  0.00000000000E+00 0.  1.
          2   -1    0    0  502    0  0.00000000000E+00 -0.00000000000E+00 -0.14597743488E+04  0.14597743488E+04  0.00000000000E+00 0. -1.
         25    1    1    2    0    0  0.19982523662E+03  0.11770316086E+02 -0.68479974559E+03  0.72432337881E+03  0.12500000000E+03 0.  0.
          1    1    1    2  502    0 -0.22585180437E+03 -0.10712208268E+03 -0.55113859176E+03  0.60517594587E+03  0.00000000000E+00 0. -1.
         -1    1    1    2    0  501  0.26026567752E+02  0.95351766597E+02 -0.16326133936E+03  0.19084969623E+03  0.00000000000E+00 0.  1.
<mgrwt>
<rscale>  4 0.59472801E+03</rscale>
<asrwt>0</asrwt>
<pdfrwt beam="1">  1        2 0.22458066E+00 0.59472801E+03</pdfrwt>
<pdfrwt beam="2">  1       -2 0.93191808E-02 0.59472801E+03</pdfrwt>
<totfact> 0.10479560E+03</totfact>
</mgrwt>
</event>
<event>
 5    0  0.5719562E-003  0.6112462E+03  0.7546771E-02  0.9882345E-01
          2   -1    0    0  502    0  0.00000000000E+00  0.00000000000E+00  0.14061801353E+04  0.14061801353E+04  0.00000000000E+00 0. -1.
         -2   -1    0    0    0  501 -0.00000000000E+00 -0.00000000000E+00 -0.66424973057E+02  0.66424973057E+02  0.00000000000E+00 0.  1.
         25    1    1    2    0    0 -0.26642908619E+03 -0.77755348599E+02  0.86348657637E+03  0.91556781277E+03  0.12500000000E+03 0.  0.
          1    1    1    2  502    0  0.21500459748E+03  0.77639110380E+02  0.43379764033E+03  0.49034192270E+03  0.00000000000E+00 0. -1.
         -1    1    1    2    0  501  0.51424488717E+02  0.11623821871E+00  0.42470945560E+02  0.66695372912E+02  0.00000000000E+00 0.  1.
<mgrwt>
<rscale>  4 0.61124619E+03</rscale>
<asrwt>0</asrwt>
<pdfrwt beam="1">  1        2 0.21633538E+00 0.61124619E+03</pdfrwt>
<pdfrwt beam="2">  1       -2 0.10219228E-01 0.61124619E+03</pdfrwt>
<totfact> 0.96631809E+02</totfact>
</mgrwt>
</event>
<event>
 5    0  0.5719562E-003  0.5246208E+03  0.7546771E-02  0.1007545E+00
         -1   -1    0    0    0  501 -0.00000000000E+00  0.00000000000E+00  0.11135567493E+03  0.11135567493E+03  0.00000000000E+00 0. -1.
          1   -1    0    0  502    0  0.00000000000E+00 -0.00000000000E+00 -0.61790066956E+03  0.61790066956E+03  0.00000000000E+00 0.  1.
         25    1    1    2    0    0 -0.15637379552E+03  0.16922174698E+03 -0.21867550100E+03  0.34136891820E+03  0.12500000000E+03 0.  0.
          4    1    1    2  502    0  0.51491443735E+02 -0.26150294170E+02 -0.15745218789E+03  0.16770926670E+03  0.00000000000E+00 0.  1.
         -4    1    1    2    0  501  0.10488235179E+03 -0.14307145281E+03 -0.13041730573E+03  0.22017815959E+03  0.00000000000E+00 0. -1.
<mgrwt>
<rscale>  4 0.52462080E+03</rscale>
<asrwt>0</asrwt>
<pdfrwt beam="1">  1        1 0.95061640E-01 0.52462080E+03</pdfrwt>
<pdfrwt beam="2">  1       -1 0.17131643E-01 0.52462080E+03</pdfrwt>
<totfact> 0.87403559E+02</totfact>
</mgrwt>
</event>
<event>
 5    0  0.5719562E-003  0.6955736E+03  0.7546771E-02  0.9724832E-01
         -2   -1    0    0    0  501 -0.00000000000E+00  0.00000000000E+00  0.17066340017E+03  0.17066340017E+03  0.00000000000E+00 0.  1.
          2   -1    0    0  502    0  0.00000000000E+00 -0.00000000000E+00 -0.70873803391E+03  0.70873803391E+03  0.00000000000E+00 0. -1.
         25    1    1    2    0    0 -0.78401584417E+02  0.32377112082E+03 -0.28107314424E+03  0.45343319191E+03  0.12500000000E+03 0.  0.
          1    1    1    2  502    0  0.60706701071E+01 -0.40392848512E+02 -0.62745365914E+02  0.74869327432E+02  0.00000000000E+00 0. -1.
         -1    1    1    2    0  501  0.72330914310E+02 -0.28337827231E+03 -0.19425612358E+03  0.35109891474E+03  0.00000000000E+00 0.  1.
<mgrwt>
<rscale>  4 0.69557356E+03</rscale>
<asrwt>0</asrwt>
<pdfrwt beam="1">  1        2 0.10903662E+00 0.69557356E+03</pdfrwt>
<pdfrwt beam="2">  1       -2 0.26255908E-01 0.69557356E+03</pdfrwt>
<totfact> 0.53192803E+02</totfact>
</mgrwt>
</event>
<event>
 5    0  0.5719562E-003  0.5779462E+03  0.7546771E-02  0.9952247E-01
         -1   -1    0    0    0  501 -0.00000000000E+00  0.00000000000E+00  0.16728926541E+03  0.16728926541E+03  0.00000000000E+00 0.  1.
          1   -1    0    0  502    0  0.00000000000E+00 -0.00000000000E+00 -0.49916794291E+03  0.49916794291E+03  0.00000000000E+00 0. -1.
         25    1    1    2    0    0  0.43187446306E+02 -0.19602750631E+03  0.40552672626E+02  0.23991969074E+03  0.12500000000E+03 0.  0.
          3    1    1    2  502    0 -0.54689557790E+02  0.14454139634E+03 -0.29144789194E+03  0.32988639969E+03  0.00000000000E+00 0. -1.
         -3    1    1    2    0  501  0.11502111484E+02  0.51486109974E+02 -0.80983458190E+02  0.96651117890E+02  0.00000000000E+00 0.  1.
<mgrwt>
<rscale>  4 0.57794615E+03</rscale>
<asrwt>0</asrwt>
<pdfrwt beam="1">  1        1 0.76795066E-01 0.57794615E+03</pdfrwt>
<pdfrwt beam="2">  1       -1 0.25736811E-01 0.57794615E+03</pdfrwt>
<totfact> 0.59727645E+02</totfact>
</mgrwt>
</event>
<event>
 5    0  0.5719562E-003  0.5249902E+03  0.7546771E-02  0.1007454E+00
          2   -1    0    0  502    0  0.00000000000E+00  0.00000000000E+00  0.41345131686E+03  0.41345131686E+03  0.00000000000E+00 0.  1.
         -2   -1    0    0    0  501 -0.00000000000E+00 -0.00000000000E+00 -0.16665489259E+03  0.16665489259E+03  0.00000000000E+00 0. -1.
         25    1    1    2    0    0 -0.17615065797E+03 -0.13206816191E+03  0.10772964669E+03  0.27513947458E+03  0.12500000000E+03 0.  0.
          1    1    1    2  502    0  0.12388002824E+03  0.15013798446E+03  0.51412260455E+02  0.20132286581E+03  0.00000000000E+00 0.  1.
         -1    1    1    2    0  501  0.52270629735E+02 -0.18069822549E+02  0.87654517135E+02  0.10364386906E+03  0.00000000000E+00 0. -1.
<mgrwt>
<rscale>  4 0.52499023E+03</rscale>
<asrwt>0</asrwt>
<pdfrwt beam="1">  1        2 0.63607894E-01 0.52499023E+03</pdfrwt>
<pdfrwt beam="2">  1       -2 0.25639214E-01 0.52499023E+03</pdfrwt>
<totfact> 0.10506286E+03</totfact>
</mgrwt>
</event>
<event>
 5    0  0.5719562E-003  0.5848973E+03  0.7546771E-02  0.9937244E-01
          1   -1    0    0  502    0  0.00000000000E+00  0.00000000000E+00  0.22337964154E+03  0.22337964154E+03  0.00000000000E+00 0. -1.
         -1   -1    0    0    0  501 -0.00000000000E+00 -0.00000000000E+00 -0.38287380665E+03  0.38287380665E+03  0.00000000000E+00 0.  1.
         25    1    1    2    0    0  0.15414611586E+03  0.18111318304E+03  0.11789361441E+02  0.26893679397E+03  0.12500000000E+03 0.  0.
          2    1    1    2  502    0 -0.73189787611E+02 -0.11553072097E+02  0.11733763874E+02  0.75019328843E+02  0.00000000000E+00 0. -1.
         -2    1    1    2    0  501 -0.80956328246E+02 -0.16956011095E+03 -0.18301729043E+03  0.26229732538E+03  0.00000000000E+00 0.  1.
<mgrwt>
<rscale>  4 0.58489730E+03</rscale>
<asrwt>0</asrwt>
<pdfrwt beam="1">  1        1 0.34366099E-01 0.58489730E+03</pdfrwt>
<pdfrwt beam="2">  1       -1 0.58903662E-01 0.58489730E+03</pdfrwt>
<totfact> 0.38126845E+02</totfact>
</mgrwt>
</event>
<event>
 5    0  0.5719562E-003  0.5671733E+03  0.7546771E-02  0.9975953E-01
         -2   -1    0    0    0  501 -0.00000000000E+00  0.00000000000E+00  0.55232184538E+02  0.55232184538E+02  0.00000000000E+00 0. -1.
          2   -1    0    0  502    0  0.00000000000E+00 -0.00000000000E+00 -0.14560602638E+04  0.14560602638E+04  0.00000000000E+00 0.  1.
         25    1    1    2    0    0 -0.19393564618E+03 -0.14858198541E+03 -0.10179622022E+04  0.10543053099E+04  0.12500000000E+03 0.  0.
          2    1    1    2  502    0  0.67099295364E+02  0.70057878137E+02 -0.18825750489E+03  0.21178127839E+03  0.00000000000E+00 0.  1.
         -2    1    1    2    0  501  0.12683635082E+03  0.78524107269E+02 -0.19460837213E+03  0.24520586007E+03  0.00000000000E+00 0. -1.
<mgrwt>
<rscale>  4 0.56717330E+03</rscale>
<asrwt>0</asrwt>
<pdfrwt beam="1">  1        2 0.22400924E+00 0.56717330E+03</pdfrwt>
<pdfrwt beam="2">  1       -2 0.84972602E-02 0.56717330E+03</pdfrwt>
<totfact> 0.12226432E+03</totfact>
</mgrwt>
</event>
<event>
 5    0  0.5719562E-003  0.5445115E+03  0.7546771E-02  0.1002772E+00
         -2   -1    0    0    0  501 -0.00000000000E+00  0.00000000000E+00  0.18986329422E+03  0.18986329422E+03  0.00000000000E+00 0. -1.
          2   -1    0    0  502    0  0.00000000000E+00 -0.00000000000E+00 -0.39040293736E+03  0.39040293736E+03  0.00000000000E+00 0.  1.
         25    1    1    2    0    0  0.13535899401E+03  0.20209050970E+03 -0.17844180463E+02  0.27405482325E+03  0.12500000000E+03 0.  0.
          2    1    1    2  502    0 -0.43338035568E+01 -0.23585386515E+02 -0.22756116240E+02  0.33058934294E+02  0.00000000000E+00 0. -1.
         -2    1    1    2    0  501 -0.13102519045E+03 -0.17850512319E+03 -0.15993934643E+03  0.27315247404E+03  0.00000000000E+00 0.  1.
<mgrwt>
<rscale>  4 0.54451148E+03</rscale>
<asrwt>0</asrwt>
<pdfrwt beam="1">  1        2 0.60061990E-01 0.54451148E+03</pdfrwt>
<pdfrwt beam="2">  1       -2 0.29209738E-01 0.54451148E+03</pdfrwt>
<totfact> 0.88363797E+02</totfact>
</mgrwt>
</event>
<event>
 5    0  0.5719562E-003  0.5846440E+03  0.7546771E-02  0.9937787E-01
          2   -1    0    0  502    0  0.00000000000E+00  0.00000000000E+00  0.59416685441E+03  0.59416685441E+03  0.00000000000E+00 0.  1.
         -2   -1    0    0    0  501 -0.00000000000E+00 -0.00000000000E+00 -0.14381845299E+03  0.14381845299E+03  0.00000000000E+00 0. -1.
         25    1    1    2    0    0  0.14846883484E+03  0.15812226820E+03  0.17738607369E+03  0.30681666474E+03  0.12500000000E+03 0.  0.
          1    1    1    2  502    0 -0.14021463193E+03 -0.66134962726E+02  0.29762020790E+03  0.33557676388E+03  0.00000000000E+00 0.  1.
         -1    1    1    2    0  501 -0.82542029122E+01 -0.91987305478E+02 -0.24657880174E+02  0.95591878784E+02  0.00000000000E+00 0. -1.
<mgrwt>
<rscale>  4 0.58464402E+03</rscale>
<asrwt>0</asrwt>
<pdfrwt beam="1">  1        2 0.91410284E-01 0.58464402E+03</pdfrwt>
<pdfrwt beam="2">  1       -2 0.22125916E-01 0.58464402E+03</pdfrwt>
<totfact> 0.89951987E+02</totfact>
</mgrwt>
</event>
<event>
 5    0  0.5719562E-003  0.6736258E+03  0.7546771E-02  0.9763430E-01
          1   -1    0    0  502    0  0.00000000000E+00  0.00000000000E+00  0.14316442063E+04  0.14316442063E+04  0.00000000000E+00 0.  1.
         -1   -1    0    0    0  501 -0.00000000000E+00 -0.00000000000E+00 -0.79239615098E+02  0.79239615098E+02  0.00000000000E+00 0. -1.
         25    1    1    2    0    0  0.28060882884E+03  0.51285642864E+02  0.10199329916E+04  0.10664238554E+04  0.12500000000E+03 0.  0.
          4    1    1    2  502    0 -0.11901311917E+03  0.80294076964E+01  0.10299668103E+03  0.15759730399E+03  0.00000000000E+00 0.  1.
         -4    1    1    2    0  501 -0.16159570967E+03 -0.59315050560E+02  0.22947491858E+03  0.28686266202E+03  0.00000000000E+00 0. -1.
<mgrwt>
<rscale>  4 0.67362582E+03</rscale>
<asrwt>0</asrwt>
<pdfrwt beam="1">  1        1 0.22025294E+00 0.67362582E+03</pdfrwt>
<pdfrwt beam="2">  1       -1 0.12190711E-01 0.67362582E+03</pdfrwt>
<totfact> 0.34302159E+02</totfact>
</mgrwt>
</event>
<event>
 5    0  0.5719562E-003  0.7772736E+03  0.7546771E-02  0.9593508E-01
         -2   -1    0    0    0  501 -0.00000000000E+00  0.00000000000E+00  0.32063149443E+03  0.32063149443E+03  0.00000000000E+00 0.  1.
          2   -1    0    0  502    0  0.00000000000E+00 -0.00000000000E+00 -0.47106595165E+03  0.47106595165E+03  0.00000000000E+00 0. -1.
         25    1    1    2    0    0  0.14882222128E+03  0.13495245412E+03  0.22170307857E+03  0.32424909170E+03  0.12500000000E+03 0.  0.
          4    1    1    2  502    0  0.24075168460E+02 -0.17610552761E+02 -0.18360028654E+03  0.18600755502E+03  0.00000000000E+00 0.  1.
         -4    1    1    2    0  501 -0.17289738974E+03 -0.11734190136E+03 -0.18853724924E+03  0.28144079936E+03  0.00000000000E+00 0. -1.
<mgrwt>
<rscale>  4 0.77727365E+03</rscale>
<asrwt>0</asrwt>
<pdfrwt beam="1">  1        2 0.72471684E-01 0.77727365E+03</pdfrwt>
<pdfrwt beam="2">  1       -2 0.49327923E-01 0.77727365E+03</pdfrwt>
<totfact> 0.25866446E+02</totfact>
</mgrwt>
</event>
<event>
 5    0  0.5719562E-003  0.5513307E+03  0.7546771E-02  0.1001186E+00
         -2   -1    0    0    0  501 -0.00000000000E+00  0.00000000000E+00  0.35226970799E+02  0.35226970799E+02  0.00000000000E+00 0. -1.
          2   -1    0    0  502    0  0.00000000000E+00 -0.00000000000E+00 -0.21571929763E+04  0.21571929763E+04  0.00000000000E+00 0.  1.
         25    1    1    2    0    0  0.10412791827E+03  0.18679674716E+03 -0.16938746086E+04  0.17118913043E+04  0.12500000000E+03 0.  0.
          1    1    1    2  502    0 -0.71522941536E+02 -0.12717933368E+03 -0.24403264758E+03  0.28432735916E+03  0.00000000000E+00 0. -1.
         -1    1    1    2    0  501 -0.32604976736E+02 -0.59617413482E+02 -0.18405874935E+03  0.19620128366E+03  0.00000000000E+00 0.  1.
<mgrwt>
<rscale>  4 0.55133066E+03</rscale>
<asrwt>0</asrwt>
<pdfrwt beam="1">  1        2 0.33187592E+00 0.55133066E+03</pdfrwt>
<pdfrwt beam="2">  1       -2 0.54195328E-02 0.55133066E+03</pdfrwt>
<totfact> 0.10346685E+03</totfact>
</mgrwt>
</event>
<event>
 5    0  0.5719562E-003  0.6141681E+03  0.7546771E-02  0.9876440E-01
         -2   -1    0    0    0  501 -0.00000000000E+00  0.00000000000E+00  0.25646666731E+03  0.25646666731E+03  0.00000000000E+00 0.  1.
          2   -1    0    0  502    0  0.00000000000E+00 -0.00000000000E+00 -0.36769149527E+03  0.36769149527E+03  0.00000000000E+00 0. -1.
         25    1    1    2    0    0  0.69527032926E+02 -0.22205455237E+03  0.12150047221E+03  0.29073974149E+03  0.12500000000E+03 0.  0.
          1    1    1    2  502    0 -0.95412418940E+01  0.98316005712E+02 -0.74074600791E+02  0.12346707560E+03  0.00000000000E+00 0.  1.
         -1    1    1    2    0  501 -0.59985791032E+02  0.12373854666E+03 -0.15865069938E+03  0.20995134548E+03  0.00000000000E+00 0. -1.
<mgrwt>
<rscale>  4 0.61416810E+03</rscale>
<asrwt>0</asrwt>
<pdfrwt beam="1">  1        2 0.56567922E-01 0.61416810E+03</pdfrwt>
<pdfrwt beam="2">  1       -2 0.39456411E-01 0.61416810E+03</pdfrwt>
<totfact> 0.53522997E+02</totfact>
</mgrwt>
</event>
<event>
 5    0  0.5719562E-003  0.5951232E+03  0.7546771E-02  0.9915576E-01
          2   -1    0    0  502    0  0.00000000000E+00  0.00000000000E+00  0.16922473022E+04  0.16922473022E+04  0.00000000000E+00 0.  1.
         -2   -1    0    0    0  501 -0.00000000000E+00 -0.00000000000E+00 -0.52322668894E+02  0.52322668894E+02  0.00000000000E+00 0. -1.
         25    1    1    2    0    0 -0.17457468040E+03 -0.15494543281E+03  0.10231406080E+04  0.10568472500E+04  0.12500000000E+03 0.  0.
          1    1    1    2  502    0  0.87084363848E+02  0.15199611316E+03  0.21910977056E+03  0.28052735410E+03  0.00000000000E+00 0. -1.
         -1    1    1    2    0  501  0.87490316550E+02  0.29493196485E+01  0.39767425477E+03  0.40719536697E+03  0.00000000000E+00 0.  1.
<mgrwt>
<rscale>  4 0.59512316E+03</rscale>
<asrwt>0</asrwt>
<pdfrwt beam="1">  1        2 0.26034570E+00 0.59512316E+03</pdfrwt>
<pdfrwt beam="2">  1       -2 0.80496427E-02 0.59512316E+03</pdfrwt>
<totfact> 0.98817991E+02</totfact>
</mgrwt>
</event>
<event>
 5    0  0.5719562E-003  0.9665886E+03  0.7546771E-02  0.9345969E-01
         -2   -1    0    0    0  501 -0.00000000000E+00  0.00000000000E+00  0.21624918604E+03  0.21624918604E+03  0.00000000000E+00 0.  1.
          2   -1    0    0  502    0  0.00000000000E+00 -0.00000000000E+00 -0.10801121083E+04  0.10801121083E+04  0.00000000000E+00 0. -1.
         25    1    1    2    0    0  0.14560685892E+03  0.22602737291E+03 -0.79979911942E+03  0.85299083353E+03  0.12500000000E+03 0.  0.
          3    1    1    2  502    0 -0.18559833292E+03 -0.70420558077E+02 -0.16112001299E+03  0.25566668686E+03  0.00000000000E+00 0. -1.
         -3    1    1    2    0  501  0.39991473995E+02 -0.15560681484E+03  0.97056210167E+02  0.18770377393E+03  0.00000000000E+00 0.  1.
<mgrwt>
<rscale>  4 0.96658857E+03</rscale>
<asrwt>0</asrwt>
<pdfrwt beam="1">  1        2 0.16617109E+00 0.96658857E+03</pdfrwt>
<pdfrwt beam="2">  1       -2 0.33269106E-01 0.96658857E+03</pdfrwt>
<totfact> 0.18888194E+02</totfact>
</mgrwt>
</event>
<event>
 5    0  0.5719562E-003  0.5644918E+03  0.7546771E-02  0.9981942E-01
         -2   -1    0    0    0  501 -0.00000000000E+00  0.00000000000E+00  0.22615081085E+02  0.22615081085E+02  0.00000000000E+00 0. -1.
          2   -1    0    0  502    0  0.00000000000E+00 -0.00000000000E+00 -0.35225496939E+04  0.35225496939E+04  0.00000000000E+00 0.  1.
         25    1    1    2    0    0 -0.18085529086E+03  0.98565284794E+02 -0.84056821827E+03  0.87441619448E+03  0.12500000000E+03 0.  0.
          2    1    1    2  502    0  0.27501761610E+02 -0.33068562657E+02 -0.15558995363E+03  0.16142524709E+03  0.00000000000E+00 0. -1.
         -2    1    1    2    0  501  0.15335352925E+03 -0.65496722137E+02 -0.25037764409E+04  0.25093233334E+04  0.00000000000E+00 0.  1.
<mgrwt>
<rscale>  4 0.56449180E+03</rscale>
<asrwt>0</asrwt>
<pdfrwt beam="1">  1        2 0.54193048E+00 0.56449180E+03</pdfrwt>
<pdfrwt beam="2">  1       -2 0.34792448E-02 0.56449180E+03</pdfrwt>
<totfact> 0.31273520E+02</totfact>
</mgrwt>
</event>
<event>
 5    0  0.5719562E-003  0.5022756E+03  0.7546771E-02  0.1013187E+00
          1   -1    0    0  502    0  0.00000000000E+00  0.00000000000E+00  0.55484976192E+03  0.55484976192E+03  0.00000000000E+00 0. -1.
         -1   -1    0    0    0  501 -0.00000000000E+00 -0.00000000000E+00 -0.11367077093E+03  0.11367077093E+03  0.00000000000E+00 0.  1.
         25    1    1    2    0    0 -0.94109581600E+02  0.21196174962E+03  0.20519829071E+03  0.33393971785E+03  0.12500000000E+03 0.  0.
          1    1    1    2  502    0 -0.29383163628E+01 -0.26481738853E+02  0.38322785237E+02  0.46674961854E+02  0.00000000000E+00 0. -1.
         -1    1    1    2    0  501  0.97047897963E+02 -0.18548001076E+03  0.19765791504E+03  0.28790585314E+03  0.00000000000E+00 0.  1.
<mgrwt>
<rscale>  4 0.50227562E+03</rscale>
<asrwt>0</asrwt>
<pdfrwt beam="1">  1        1 0.85361501E-01 0.50227562E+03</pdfrwt>
<pdfrwt beam="2">  1       -1 0.17487811E-01 0.50227562E+03</pdfrwt>
<totfact> 0.98436414E+02</totfact>
</mgrwt>
</event>
<event>
 5    0  0.5719562E-003  0.1075658E+04  0.7546771E-02  0.9229247E-01
         -2   -1    0    0    0  501 -0.00000000000E+00  0.00000000000E+00  0.11649860979E+03  0.11649860979E+03  0.00000000000E+00 0.  1.
          2   -1    0    0  502    0  0.00000000000E+00 -0.00000000000E+00 -0.24829483479E+04  0.24829483479E+04  0.00000000000E+00 0. -1.
         25    1    1    2    0    0  0.46567789137E+03  0.38503367597E+02 -0.75627990441E+03  0.89773197650E+03  0.12500000000E+03 0.  0.
          4    1    1    2  502    0  0.21990418337E+02 -0.19502536538E+02 -0.13914568721E+02  0.32519880885E+02  0.00000000000E+00 0. -1.
         -4    1    1    2    0  501 -0.48766830971E+03 -0.19000831059E+02 -0.15962552650E+04  0.16691951003E+04  0.00000000000E+00 0.  1.
<mgrwt>
<rscale>  4 0.10756580E+04</rscale>
<asrwt>0</asrwt>
<pdfrwt beam="1">  1        2 0.38199208E+00 0.10756580E+04</pdfrwt>
<pdfrwt beam="2">  1       -2 0.17922862E-01 0.10756580E+04</pdfrwt>
<totfact> 0.92502571E+01</totfact>
</mgrwt>
</event>
<event>
 5    0  0.5719562E-003  0.5096947E+03  0.7546771E-02  0.1011279E+00
          2   -1    0    0  502    0  0.00000000000E+00  0.00000000000E+00  0.41830918522E+03  0.41830918522E+03  0.00000000000E+00 0. -1.
         -2   -1    0    0    0  501 -0.00000000000E+00 -0.00000000000E+00 -0.15526117931E+03  0.15526117931E+03  0.00000000000E+00 0.  1.
         25    1    1    2    0    0  0.18566759243E+03  0.13670633792E+03  0.13673836220E+03  0.29577602574E+03  0.12500000000E+03 0.  0.
          2    1    1    2  502    0 -0.74039277582E+02 -0.40915496338E+02  0.95370992876E+02  0.12748144472E+03  0.00000000000E+00 0. -1.
         -2    1    1    2    0  501 -0.11162831485E+03 -0.95790841586E+02  0.30938650826E+02  0.15031289407E+03  0.00000000000E+00 0.  1.
<mgrwt>
<rscale>  4 0.50969472E+03</rscale>
<asrwt>0</asrwt>
<pdfrwt beam="1">  1        2 0.64355259E-01 0.50969472E+03</pdfrwt>
<pdfrwt beam="2">  1       -2 0.23886336E-01 0.50969472E+03</pdfrwt>
<totfact> 0.11770667E+03</totfact>
</mgrwt>
</event>
<event>
 5    0  0.5719562E-003  0.4877562E+03  0.7546771E-02  0.1017025E+00
         -2   -1    0    0    0  501 -0.00000000000E+00  0.00000000000E+00  0.85574332370E+02  0.85574332370E+02  0.00000000000E+00 0. -1.
          2   -1    0    0  502    0  0.00000000000E+00 -0.00000000000E+00 -0.69502777231E+03  0.69502777231E+03  0.00000000000E+00 0.  1.
         25    1    1    2    0    0  0.53315893251E+01  0.22579527836E+03 -0.32826001828E+03  0.41760217094E+03  0.12500000000E+03 0.  0.
          4    1    1    2  502    0  0.81674531806E+01 -0.19996949732E+02 -0.15176805533E+02  0.26399255979E+02  0.00000000000E+00 0. -1.
         -4    1    1    2    0  501 -0.13499042506E+02 -0.20579832863E+03 -0.26601661613E+03  0.33660067776E+03  0.00000000000E+00 0.  1.
<mgrwt>
<rscale>  4 0.48775624E+03</rscale>
<asrwt>0</asrwt>
<pdfrwt beam="1">  1        2 0.10692735E+00 0.48775624E+03</pdfrwt>
<pdfrwt beam="2">  1       -2 0.13165282E-01 0.48775624E+03</pdfrwt>
<totfact> 0.18040095E+03</totfact>
</mgrwt>
</event>
<event>
 5    0  0.5719562E-003  0.5800424E+03  0.7546771E-02  0.9947699E-01
          1   -1    0    0  502    0  0.00000000000E+00  0.00000000000E+00  0.19000979650E+04  0.19000979650E+04  0.00000000000E+00 0. -1.
         -1   -1    0    0    0  501 -0.00000000000E+00 -0.00000000000E+00 -0.44267342914E+02  0.44267342914E+02  0.00000000000E+00 0.  1.
         25    1    1    2    0    0  0.25224120166E+03 -0.35308163558E+02  0.99607938103E+03  0.10356985196E+04  0.12500000000E+03 0.  0.
          2    1    1    2  502    0 -0.30127631569E+02  0.29482437494E+02  0.35866204458E+02  0.55346842067E+02  0.00000000000E+00 0.  1.
         -2    1    1    2    0  501 -0.22211357009E+03  0.58257260643E+01  0.82388503663E+03  0.85331994626E+03  0.00000000000E+00 0. -1.
<mgrwt>
<rscale>  4 0.58004237E+03</rscale>
<asrwt>0</asrwt>
<pdfrwt beam="1">  1        1 0.29232270E+00 0.58004237E+03</pdfrwt>
<pdfrwt beam="2">  1       -1 0.68103619E-02 0.58004237E+03</pdfrwt>
<totfact> 0.41738201E+02</totfact>
</mgrwt>
</event>
<event>
 5    0  0.5719562E-003  0.1575548E+04  0.7546771E-02  0.8835712E-01
          1   -1    0    0  502    0  0.00000000000E+00  0.00000000000E+00  0.19461926368E+04  0.19461926368E+04  0.00000000000E+00 0.  1.
         -1   -1    0    0    0  501 -0.00000000000E+00 -0.00000000000E+00 -0.31887280065E+03  0.31887280065E+03  0.00000000000E+00 0. -1.
         25    1    1    2    0    0  0.49353524342E+03  0.21783156385E+03  0.53613301675E+03  0.77077314325E+03  0.12500000000E+03 0.  0.
          1    1    1    2  502    0 -0.86579965621E+02 -0.23544960542E+03  0.10560566008E+04  0.10854437578E+04  0.00000000000E+00 0.  1.
         -1    1    1    2    0  501 -0.40695527780E+03  0.17618041567E+02  0.35130218623E+02  0.40884853648E+03  0.00000000000E+00 0. -1.
<mgrwt>
<rscale>  4 0.15755480E+04</rscale>
<asrwt>0</asrwt>
<pdfrwt beam="1">  1        1 0.29941424E+00 0.15755480E+04</pdfrwt>
<pdfrwt beam="2">  1       -1 0.49057355E-01 0.15755480E+04</pdfrwt>
<totfact> 0.12975390E+01</totfact>
</mgrwt>
</event>
<event>
 5    0  0.5719562E-003  0.6028954E+03  0.7546771E-02  0.9899417E-01
         -2   -1    0    0    0  501 -0.00000000000E+00  0.00000000000E+00  0.91724084963E+02  0.91724084963E+02  0.00000000000E+00 0. -1.
          2   -1    0    0  502    0  0.00000000000E+00 -0.00000000000E+00 -0.99069619972E+03  0.99069619972E+03  0.00000000000E+00 0.  1.
         25    1    1    2    0    0  0.21521242223E+03 -0.25064802930E+02 -0.17671784959E+03  0.30626594553E+03  0.12500000000E+03 0.  0.
          2    1    1    2  502    0 -0.12133473816E+03  0.70055402523E+02 -0.20355910463E+03  0.24711573641E+03  0.00000000000E+00 0. -1.
         -2    1    1    2    0  501 -0.93877684069E+02 -0.44990599593E+02 -0.51869516054E+03  0.52903860273E+03  0.00000000000E+00 0.  1.
<mgrwt>
<rscale>  4 0.60289536E+03</rscale>
<asrwt>0</asrwt>
<pdfrwt beam="1">  1        2 0.15241480E+00 0.60289536E+03</pdfrwt>
<pdfrwt beam="2">  1       -2 0.14111398E-01 0.60289536E+03</pdfrwt>
<totfact> 0.99969814E+02</totfact>
</mgrwt>
</event>
<event>
 5    0  0.5719562E-003  0.4834314E+03  0.7546771E-02  0.1018196E+00
         -2   -1    0    0    0  501 -0.00000000000E+00  0.00000000000E+00  0.12166905571E+04  0.12166905571E+04  0.00000000000E+00 0. -1.
          2   -1    0    0  502    0  0.00000000000E+00 -0.00000000000E+00 -0.48020826356E+02  0.48020826356E+02  0.00000000000E+00 0.  1.
         25    1    1    2    0    0  0.41756778571E+02  0.19627078562E+03  0.54840271690E+03  0.59719041331E+03  0.12500000000E+03 0.  0.
          2    1    1    2  502    0 -0.89989030850E+01 -0.20417935268E+03  0.58032578075E+03  0.61526270821E+03  0.00000000000E+00 0.  1.
         -2    1    1    2    0  501 -0.32757875486E+02  0.79085670603E+01  0.39941233094E+02  0.52258261935E+02  0.00000000000E+00 0. -1.
<mgrwt>
<rscale>  4 0.48343143E+03</rscale>
<asrwt>0</asrwt>
<pdfrwt beam="1">  1        2 0.73878203E-02 0.48343143E+03</pdfrwt>
<pdfrwt beam="2">  1       -2 0.18718314E+00 0.48343143E+03</pdfrwt>
<totfact> 0.16329467E+02</totfact>
</mgrwt>
</event>
<event>
 5    0  0.5719562E-003  0.5352578E+03  0.7546771E-02  0.1004965E+00
         -2   -1    0    0    0  501 -0.00000000000E+00  0.00000000000E+00  0.11882820469E+03  0.11882820469E+03  0.00000000000E+00 0. -1.
          2   -1    0    0  502    0  0.00000000000E+00 -0.00000000000E+00 -0.60276276321E+03  0.60276276321E+03  0.00000000000E+00 0.  1.
         25    1    1    2    0    0  0.21340901570E+03 -0.10047349627E+03 -0.15182023544E+03  0.30710375335E+03  0.12500000000E+03 0.  0.
          2    1    1    2  502    0 -0.20884237005E+03  0.74716371891E+02 -0.29516736244E+03  0.36921733925E+03  0.00000000000E+00 0.  1.
         -2    1    1    2    0  501 -0.45666456525E+01  0.25757124376E+02 -0.36946960645E+02  0.45269875299E+02  0.00000000000E+00 0. -1.
<mgrwt>
<rscale>  4 0.53525776E+03</rscale>
<asrwt>0</asrwt>
<pdfrwt beam="1">  1        2 0.92732733E-01 0.53525776E+03</pdfrwt>
<pdfrwt beam="2">  1       -2 0.18281262E-01 0.53525776E+03</pdfrwt>
<totfact> 0.12335810E+03</totfact>
</mgrwt>
</event>
<event>
 5    0  0.5719562E-003  0.7298280E+03  0.7546771E-02  0.9667540E-01
         -2   -1    0    0    0  501 -0.00000000000E+00  0.00000000000E+00  0.75200669756E+02  0.75200669756E+02  0.00000000000E+00 0.  1.
          2   -1    0    0  502    0  0.00000000000E+00 -0.00000000000E+00 -0.17707584596E+04  0.17707584596E+04  0.00000000000E+00 0. -1.
         25    1    1    2    0    0 -0.18087462133E+03  0.27619886857E+03 -0.11609307801E+04  0.12134194328E+04  0.12500000000E+03 0.  0.
          3    1    1    2  502    0  0.35284636981E+02 -0.90476410996E+02 -0.20829907696E+03  0.22982491600E+03  0.00000000000E+00 0. -1.
         -3    1    1    2    0  501  0.14558998435E+03 -0.18572245757E+03 -0.32632793282E+03  0.40271478062E+03  0.00000000000E+00 0.  1.
<mgrwt>
<rscale>  4 0.72982799E+03</rscale>
<asrwt>0</asrwt>
<pdfrwt beam="1">  1        2 0.27242439E+00 0.72982799E+03</pdfrwt>
<pdfrwt beam="2">  1       -2 0.11569333E-01 0.72982799E+03</pdfrwt>
<totfact> 0.49359232E+02</totfact>
</mgrwt>
</event>
<event>
 5    0  0.5719562E-003  0.6206848E+03  0.7546771E-02  0.9863397E-01
         -2   -1    0    0    0  501 -0.00000000000E+00  0.00000000000E+00  0.38042440174E+03  0.38042440174E+03  0.00000000000E+00 0.  1.
          2   -1    0    0  502    0  0.00000000000E+00 -0.00000000000E+00 -0.25317098366E+03  0.25317098366E+03  0.00000000000E+00 0. -1.
         25    1    1    2    0    0  0.12851458019E+03  0.21375552159E+03  0.22751064342E+03  0.35999099044E+03  0.12500000000E+03 0.  0.
          1    1    1    2  502    0 -0.45950991403E+02 -0.70562538713E+02 -0.60251573340E+02  0.10354138096E+03  0.00000000000E+00 0. -1.
         -1    1    1    2    0  501 -0.82563588788E+02 -0.14319298288E+03 -0.40005651995E+02  0.17006301400E+03  0.00000000000E+00 0.  1.
<mgrwt>
<rscale>  4 0.62068485E+03</rscale>
<asrwt>0</asrwt>
<pdfrwt beam="1">  1        2 0.38949382E-01 0.62068485E+03</pdfrwt>
<pdfrwt beam="2">  1       -2 0.58526831E-01 0.62068485E+03</pdfrwt>
<totfact> 0.36572481E+02</totfact>
</mgrwt>
</event>
<event>
 5    0  0.5719562E-003  0.9305052E+03  0.7546771E-02  0.9388232E-01
         -2   -1    0    0    0  501 -0.00000000000E+00  0.00000000000E+00  0.16596873239E+03  0.16596873239E+03  0.00000000000E+00 0.  1.
          2   -1    0    0  502    0  0.00000000000E+00 -0.00000000000E+00 -0.13042214395E+04  0.13042214395E+04  0.00000000000E+00 0. -1.
         25    1    1    2    0    0  0.33778390437E+03  0.75511614143E+02 -0.27117822888E+03  0.45712427385E+03  0.12500000000E+03 0.  0.
          1    1    1    2  502    0 -0.36038781923E+03 -0.16582510322E+03 -0.52191113469E+03  0.65556737078E+03  0.00000000000E+00 0. -1.
         -1    1    1    2    0  501  0.22603914863E+02  0.90313489078E+02 -0.34516334351E+03  0.35749852724E+03  0.00000000000E+00 0.  1.
<mgrwt>
<rscale>  4 0.93050519E+03</rscale>
<asrwt>0</asrwt>
<pdfrwt beam="1">  1        2 0.20064945E+00 0.93050519E+03</pdfrwt>
<pdfrwt beam="2">  1       -2 0.25533651E-01 0.93050519E+03</pdfrwt>
<totfact> 0.22695879E+02</totfact>
</mgrwt>
</event>
<event>
 5    0  0.5719562E-003  0.4662381E+03  0.7546771E-02  0.1022987E+00
          2   -1    0    0  502    0  0.00000000000E+00  0.00000000000E+00  0.10948422574E+03  0.10948422574E+03  0.00000000000E+00 0. -1.
         -2   -1    0    0    0  501 -0.00000000000E+00 -0.00000000000E+00 -0.49636825963E+03  0.49636825963E+03  0.00000000000E+00 0.  1.
         25    1    1    2    0    0  0.29775693204E+01 -0.20952706285E+03 -0.16492953321E+03  0.29451181116E+03  0.12500000000E+03 0.  0.
          1    1    1    2  502    0 -0.22865206762E+02  0.13856460136E+03 -0.11532487017E+03  0.18172174364E+03  0.00000000000E+00 0. -1.
         -1    1    1    2    0  501  0.19887637441E+02  0.70962461486E+02 -0.10662963050E+03  0.12961893058E+03  0.00000000000E+00 0.  1.
<mgrwt>
<rscale>  4 0.46623811E+03</rscale>
<asrwt>0</asrwt>
<pdfrwt beam="1">  1        2 0.16843727E-01 0.46623811E+03</pdfrwt>
<pdfrwt beam="2">  1       -2 0.76364348E-01 0.46623811E+03</pdfrwt>
<totfact> 0.53886274E+02</totfact>
</mgrwt>
</event>
<event>
 5    0  0.5719562E-003  0.4760328E+03  0.7546771E-02  0.1020231E+00
         -2   -1    0    0    0  501 -0.00000000000E+00  0.00000000000E+00  0.88934054428E+03  0.88934054428E+03  0.00000000000E+00 0.  1.
          2   -1    0    0  502    0  0.00000000000E+00 -0.00000000000E+00 -0.63700923730E+02  0.63700923730E+02  0.00000000000E+00 0. -1.
         25    1    1    2    0    0 -0.20892438769E+03  0.40300963885E+02  0.33837961359E+03  0.41880703236E+03  0.12500000000E+03 0.  0.
          4    1    1    2  502    0  0.12348184193E+03 -0.25569659122E+01  0.31364469849E+03  0.33708648779E+03  0.00000000000E+00 0. -1.
         -4    1    1    2    0  501  0.85442545760E+02 -0.37743997973E+02  0.17361530847E+03  0.19714794786E+03  0.00000000000E+00 0.  1.
<mgrwt>
<rscale>  4 0.47603283E+03</rscale>
<asrwt>0</asrwt>
<pdfrwt beam="1">  1        2 0.98001428E-02 0.47603283E+03</pdfrwt>
<pdfrwt beam="2">  1       -2 0.13682161E+00 0.47603283E+03</pdfrwt>
<totfact> 0.26391321E+02</totfact>
</mgrwt>
</event>
<event>
 5    0  0.5719562E-003  0.7689677E+03  0.7546771E-02  0.9606054E-01
         -2   -1    0    0    0  501 -0.00000000000E+00  0.00000000000E+00  0.87611187648E+02  0.87611187648E+02  0.00000000000E+00 0.  1.
          2   -1    0    0  502    0  0.00000000000E+00 -0.00000000000E+00 -0.16873168644E+04  0.16873168644E+04  0.00000000000E+00 0. -1.
         25    1    1    2    0    0  0.10314465173E+03  0.23938894006E+03 -0.32978009146E+03  0.43854964659E+03  0.12500000000E+03 0.  0.
          3    1    1    2  502    0 -0.11761050730E+03 -0.17065890407E+02 -0.87424863142E+03  0.88228915078E+03  0.00000000000E+00 0. -1.
         -3    1    1    2    0  501  0.14465855564E+02 -0.22232304965E+03 -0.39567695387E+03  0.45408925467E+03  0.00000000000E+00 0.  1.
<mgrwt>
<rscale>  4 0.76896771E+03</rscale>
<asrwt>0</asrwt>
<pdfrwt beam="1">  1        2 0.25958722E+00 0.76896771E+03</pdfrwt>
<pdfrwt beam="2">  1       -2 0.13478644E-01 0.76896771E+03</pdfrwt>
<totfact> 0.42438797E+02</totfact>
</mgrwt>
</event>
<event>
 5    0  0.5719562E-003  0.6042900E+03  0.7546771E-02  0.9896545E-01
         -2   -1    0    0    0  501 -0.00000000000E+00  0.00000000000E+00  0.52867672985E+02  0.52867672985E+02  0.00000000000E+00 0.  1.
          2   -1    0    0  502    0  0.00000000000E+00 -0.00000000000E+00 -0.17267944845E+04  0.17267944845E+04  0.00000000000E+00 0. -1.
         25    1    1    2    0    0 -0.95600070287E+02  0.22290524199E+03 -0.12893974099E+04  0.13179517446E+04  0.12500000000E+03 0.  0.
          3    1    1    2  502    0  0.44298782258E+02 -0.26879482470E+02 -0.61861344347E+02  0.80695195717E+02  0.00000000000E+00 0. -1.
         -3    1    1    2    0  501  0.51301288028E+02 -0.19602575952E+03 -0.32266805720E+03  0.38101521713E+03  0.00000000000E+00 0.  1.
<mgrwt>
<rscale>  4 0.60429002E+03</rscale>
<asrwt>0</asrwt>
<pdfrwt beam="1">  1        2 0.26566065E+00 0.60429002E+03</pdfrwt>
<pdfrwt beam="2">  1       -2 0.81334895E-02 0.60429002E+03</pdfrwt>
<totfact> 0.93042841E+02</totfact>
</mgrwt>
</event>
<event>
 5    0  0.5719562E-003  0.7594943E+03  0.7546771E-02  0.9620572E-01
          2   -1    0    0  502    0  0.00000000000E+00  0.00000000000E+00  0.25414754186E+04  0.25414754186E+04  0.00000000000E+00 0.  1.
         -2   -1    0    0    0  501 -0.00000000000E+00 -0.00000000000E+00 -0.56741804893E+02  0.56741804893E+02  0.00000000000E+00 0. -1.
         25    1    1    2    0    0  0.30587911170E+03 -0.11200318494E+03  0.72486871285E+03  0.80446652837E+03  0.12500000000E+03 0.  0.
          1    1    1    2  502    0 -0.17405663194E+03  0.66733877333E+01  0.75627616172E+03  0.77607594861E+03  0.00000000000E+00 0. -1.
         -1    1    1    2    0  501 -0.13182247975E+03  0.10532979721E+03  0.10035887391E+04  0.10176747465E+04  0.00000000000E+00 0.  1.
<mgrwt>
<rscale>  4 0.75949431E+03</rscale>
<asrwt>0</asrwt>
<pdfrwt beam="1">  1        2 0.39099613E+00 0.75949431E+03</pdfrwt>
<pdfrwt beam="2">  1       -2 0.87295104E-02 0.75949431E+03</pdfrwt>
<totfact> 0.29245825E+02</totfact>
</mgrwt>
</event>
<event>
 5    0  0.5719562E-003  0.9566090E+03  0.7546771E-02  0.9357459E-01
         -2   -1    0    0    0  501 -0.00000000000E+00  0.00000000000E+00  0.67816853093E+02  0.67816853093E+02  0.00000000000E+00 0. -1.
          2   -1    0    0  502    0  0.00000000000E+00 -0.00000000000E+00 -0.33734272077E+04  0.33734272077E+04  0.00000000000E+00 0.  1.
         25    1    1    2    0    0  0.17380986023E+03 -0.14947740864E+03 -0.26055744396E+03  0.36887470069E+03  0.12500000000E+03 0.  0.
          2    1    1    2  502    0  0.62892796168E+02 -0.63118661031E+02 -0.78233570822E+03  0.78739356712E+03  0.00000000000E+00 0. -1.
         -2    1    1    2    0  501 -0.23670265639E+03  0.21259606967E+03 -0.22627172024E+04  0.22849757930E+04  0.00000000000E+00 0.  1.
<mgrwt>
<rscale>  4 0.95660905E+03</rscale>
<asrwt>0</asrwt>
<pdfrwt beam="1">  1        2 0.51898896E+00 0.95660905E+03</pdfrwt>
<pdfrwt beam="2">  1       -2 0.10433359E-01 0.95660905E+03</pdfrwt>
<totfact> 0.66365088E+01</totfact>
</mgrwt>
</event>
<event>
 5    0  0.5719562E-003  0.8240099E+03  0.7546771E-02  0.9525900E-01
          1   -1    0    0  502    0  0.00000000000E+00  0.00000000000E+00  0.35527078839E+04  0.35527078839E+04  0.00000000000E+00 0.  1.
         -1   -1    0    0    0  501 -0.00000000000E+00 -0.00000000000E+00 -0.47779912878E+02  0.47779912878E+02  0.00000000000E+00 0. -1.
         25    1    1    2    0    0 -0.82998423582E+02  0.22260303827E+03  0.25856283928E+04  0.25995268871E+04  0.12500000000E+03 0.  0.
          1    1    1    2  502    0  0.18865401882E+03 -0.10140939555E+03  0.35888879531E+03  0.41794182816E+03  0.00000000000E+00 0.  1.
         -1    1    1    2    0  501 -0.10565559524E+03 -0.12119364272E+03  0.56041078285E+03  0.58301908148E+03  0.00000000000E+00 0. -1.
<mgrwt>
<rscale>  4 0.82400989E+03</rscale>
<asrwt>0</asrwt>
<pdfrwt beam="1">  1        1 0.54657024E+00 0.82400989E+03</pdfrwt>
<pdfrwt beam="2">  1       -1 0.73507586E-02 0.82400989E+03</pdfrwt>
<totfact> 0.24765051E+01</totfact>
</mgrwt>
</event>
<event>
 5    0  0.5719562E-003  0.6097414E+03  0.7546771E-02  0.9885399E-01
         -2   -1    0    0    0  501 -0.00000000000E+00  0.00000000000E+00  0.13546529639E+03  0.13546529639E+03  0.00000000000E+00 0.  1.
          2   -1    0    0  502    0  0.00000000000E+00 -0.00000000000E+00 -0.68612515242E+03  0.68612515242E+03  0.00000000000E+00 0. -1.
         25    1    1    2    0    0  0.16660756059E+02 -0.27077490165E+03 -0.41185619901E+03  0.50877023971E+03  0.12500000000E+03 0.  0.
          3    1    1    2  502    0 -0.13738411138E+02  0.24088762716E+03 -0.94127635063E+02  0.25898958385E+03  0.00000000000E+00 0.  1.
         -3    1    1    2    0  501 -0.29223449206E+01  0.29887274490E+02 -0.44676021958E+02  0.53830625245E+02  0.00000000000E+00 0. -1.
<mgrwt>
<rscale>  4 0.60974141E+03</rscale>
<asrwt>0</asrwt>
<pdfrwt beam="1">  1        2 0.10555771E+00 0.60974141E+03</pdfrwt>
<pdfrwt beam="2">  1       -2 0.20840815E-01 0.60974141E+03</pdfrwt>
<totfact> 0.83819132E+02</totfact>
</mgrwt>
</event>
<event>
 5    0  0.5719562E-003  0.1028149E+04  0.7546771E-02  0.9278199E-01
         -2   -1    0    0    0  501 -0.00000000000E+00  0.00000000000E+00  0.69805073340E+02  0.69805073340E+02  0.00000000000E+00 0. -1.
          2   -1    0    0  502    0  0.00000000000E+00 -0.00000000000E+00 -0.37858637225E+04  0.37858637225E+04  0.00000000000E+00 0.  1.
         25    1    1    2    0    0 -0.32713277726E+03 -0.98387021160E+01 -0.31783016852E+04  0.31975520725E+04  0.12500000000E+03 0.  0.
          3    1    1    2  502    0  0.13351666554E+03 -0.30347058067E+02 -0.38384685487E+03  0.40753656511E+03  0.00000000000E+00 0. -1.
         -3    1    1    2    0  501  0.19361611171E+03  0.40185760183E+02 -0.15391010912E+03  0.25058015828E+03  0.00000000000E+00 0.  1.
<mgrwt>
<rscale>  4 0.10281488E+04</rscale>
<asrwt>0</asrwt>
<pdfrwt beam="1">  1        2 0.58244055E+00 0.10281488E+04</pdfrwt>
<pdfrwt beam="2">  1       -2 0.10739242E-01 0.10281488E+04</pdfrwt>
<totfact> 0.32199366E+01</totfact>
</mgrwt>
</event>
<event>
 5    0  0.5719562E-003  0.5383172E+03  0.7546771E-02  0.1004235E+00
         -1   -1    0    0    0  501 -0.00000000000E+00  0.00000000000E+00  0.10685689018E+04  0.10685689018E+04  0.00000000000E+00 0. -1.
          1   -1    0    0  502    0  0.00000000000E+00 -0.00000000000E+00 -0.67797540359E+02  0.67797540359E+02  0.00000000000E+00 0.  1.
         25    1    1    2    0    0 -0.17879470721E+03 -0.14925053796E+03  0.34937619675E+03  0.43810044198E+03  0.12500000000E+03 0.  0.
          2    1    1    2  502    0  0.10792085018E+03  0.11007821200E+03  0.29571412147E+03  0.33348307948E+03  0.00000000000E+00 0.  1.
         -2    1    1    2    0  501  0.70873857035E+02  0.39172325957E+02  0.35568104326E+03  0.36478292074E+03  0.00000000000E+00 0. -1.
<mgrwt>
<rscale>  4 0.53831717E+03</rscale>
<asrwt>0</asrwt>
<pdfrwt beam="1">  1        1 0.10430392E-01 0.53831717E+03</pdfrwt>
<pdfrwt beam="2">  1       -1 0.16439520E+00 0.53831717E+03</pdfrwt>
<totfact> 0.17622833E+02</totfact>
</mgrwt>
</event>
<event>
 5    0  0.5719562E-003  0.5840686E+03  0.7546771E-02  0.9939021E-01
          1   -1    0    0  502    0  0.00000000000E+00  0.00000000000E+00  0.81727534384E+03  0.81727534384E+03  0.00000000000E+00 0.  1.
         -1   -1    0    0    0  501 -0.00000000000E+00 -0.00000000000E+00 -0.10435163752E+03  0.10435163752E+03  0.00000000000E+00 0. -1.
         25    1    1    2    0    0 -0.11861822911E+03 -0.21975823895E+03  0.18519256158E+03  0.33508991738E+03  0.12500000000E+03 0.  0.
          1    1    1    2  502    0  0.25413422793E+02  0.13556186898E+02  0.76533565794E+02  0.81774072629E+02  0.00000000000E+00 0. -1.
         -1    1    1    2    0  501  0.93204806320E+02  0.20620205205E+03  0.45119757894E+03  0.50476299135E+03  0.00000000000E+00 0.  1.
<mgrwt>
<rscale>  4 0.58406856E+03</rscale>
<asrwt>0</asrwt>
<pdfrwt beam="1">  1        1 0.12573466E+00 0.58406856E+03</pdfrwt>
<pdfrwt beam="2">  1       -1 0.16054099E-01 0.58406856E+03</pdfrwt>
<totfact> 0.63587264E+02</totfact>
</mgrwt>
</event>
<event>
 5    0  0.5719562E-003  0.5455367E+03  0.7546771E-02  0.1002532E+00
          1   -1    0    0  502    0  0.00000000000E+00  0.00000000000E+00  0.88398380250E+03  0.88398380250E+03  0.00000000000E+00 0.  1.
         -1   -1    0    0    0  501 -0.00000000000E+00 -0.00000000000E+00 -0.84167356291E+02  0.84167356291E+02  0.00000000000E+00 0. -1.
         25    1    1    2    0    0 -0.17520301590E+03  0.97262702077E+02  0.46231451921E+03  0.51914915455E+03  0.12500000000E+03 0.  0.
          3    1    1    2  502    0  0.14710376516E+03 -0.16568150438E+03  0.24022868500E+03  0.32680223334E+03  0.00000000000E+00 0.  1.
         -3    1    1    2    0  501  0.28099250737E+02  0.68418802303E+02  0.97273241993E+02  0.12219977090E+03  0.00000000000E+00 0. -1.
<mgrwt>
<rscale>  4 0.54553673E+03</rscale>
<asrwt>0</asrwt>
<pdfrwt beam="1">  1        1 0.13599750E+00 0.54553673E+03</pdfrwt>
<pdfrwt beam="2">  1       -1 0.12948825E-01 0.54553673E+03</pdfrwt>
<totfact> 0.79273952E+02</totfact>
</mgrwt>
</event>
<event>
 5    0  0.5719562E-003  0.5634667E+03  0.7546771E-02  0.9984241E-01
          2   -1    0    0  502    0  0.00000000000E+00  0.00000000000E+00  0.53287285211E+03  0.53287285211E+03  0.00000000000E+00 0. -1.
         -2   -1    0    0    0  501 -0.00000000000E+00 -0.00000000000E+00 -0.14895425027E+03  0.14895425027E+03  0.00000000000E+00 0.  1.
         25    1    1    2    0    0 -0.19924483299E+03 -0.13379903774E+03  0.33819005115E+03  0.43312607480E+03  0.12500000000E+03 0.  0.
          4    1    1    2  502    0  0.17478542732E+03  0.97893415369E+02  0.30371347287E+02  0.20262153171E+03  0.00000000000E+00 0.  1.
         -4    1    1    2    0  501  0.24459405673E+02  0.35905622366E+02  0.15357203392E+02  0.46079495868E+02  0.00000000000E+00 0. -1.
<mgrwt>
<rscale>  4 0.56346668E+03</rscale>
<asrwt>0</asrwt>
<pdfrwt beam="1">  1        2 0.81980438E-01 0.56346668E+03</pdfrwt>
<pdfrwt beam="2">  1       -2 0.22916039E-01 0.56346668E+03</pdfrwt>
<totfact> 0.96141180E+02</totfact>
</mgrwt>
</event>
<event>
 5    0  0.5719562E-003  0.5802449E+03  0.7546771E-02  0.9947261E-01
         -2   -1    0    0    0  501 -0.00000000000E+00  0.00000000000E+00  0.86470562162E+02  0.86470562162E+02  0.00000000000E+00 0.  1.
          2   -1    0    0  502    0  0.00000000000E+00 -0.00000000000E+00 -0.97340687379E+03  0.97340687379E+03  0.00000000000E+00 0. -1.
         25    1    1    2    0    0  0.15689157369E+03 -0.18665319258E+03 -0.27967590569E+03  0.39153287527E+03  0.12500000000E+03 0.  0.
          4    1    1    2  502    0 -0.66554192921E+01  0.88085044139E+02 -0.29646216316E+03  0.30934298731E+03  0.00000000000E+00 0. -1.
         -4    1    1    2    0  501 -0.15023615439E+03  0.98568148442E+02 -0.31079824277E+03  0.35900157337E+03  0.00000000000E+00 0.  1.
<mgrwt>
<rscale>  4 0.58024491E+03</rscale>
<asrwt>0</asrwt>
<pdfrwt beam="1">  1        2 0.14975490E+00 0.58024491E+03</pdfrwt>
<pdfrwt beam="2">  1       -2 0.13303164E-01 0.58024491E+03</pdfrwt>
<totfact> 0.11321184E+03</totfact>
</mgrwt>
</event>
<event>
 5    0  0.5719562E-003  0.5900955E+03  0.7546771E-02  0.9926170E-01
          2   -1    0    0  502    0  0.00000000000E+00  0.00000000000E+00  0.23847906973E+04  0.23847906973E+04  0.00000000000E+00 0.  1.
         -2   -1    0    0    0  501 -0.00000000000E+00 -0.00000000000E+00 -0.36503488332E+02  0.36503488332E+02  0.00000000000E+00 0. -1.
         25    1    1    2    0    0 -0.22112250078E+03  0.71294034581E+02  0.18330750142E+04  0.18519630146E+04  0.12500000000E+03 0.  0.
          4    1    1    2  502    0  0.20132610365E+03 -0.48019711609E+02  0.47993024412E+03  0.52265775794E+03  0.00000000000E+00 0. -1.
         -4    1    1    2    0  501  0.19796397134E+02 -0.23274322972E+02  0.35281950655E+02  0.46673413110E+02  0.00000000000E+00 0.  1.
<mgrwt>
<rscale>  4 0.59009552E+03</rscale>
<asrwt>0</asrwt>
<pdfrwt beam="1">  1        2 0.36689075E+00 0.59009552E+03</pdfrwt>
<pdfrwt beam="2">  1       -2 0.56159232E-02 0.59009552E+03</pdfrwt>
<totfact> 0.73170527E+02</totfact>
</mgrwt>
</event>
<event>
 5    0  0.5719562E-003  0.4438502E+03  0.7546771E-02  0.1029572E+00
          2   -1    0    0  502    0  0.00000000000E+00  0.00000000000E+00  0.89227197133E+03  0.89227197133E+03  0.00000000000E+00 0.  1.
         -2   -1    0    0    0  501 -0.00000000000E+00 -0.00000000000E+00 -0.55197012137E+02  0.55197012137E+02  0.00000000000E+00 0. -1.
         25    1    1    2    0    0  0.19104518262E+03 -0.60327354388E+02  0.48609409452E+03  0.54041661727E+03  0.12500000000E+03 0.  0.
          3    1    1    2  502    0 -0.15902164196E+03  0.37441596702E+02  0.24973641197E+03  0.29842592253E+03  0.00000000000E+00 0. -1.
         -3    1    1    2    0  501 -0.32023540659E+02  0.22885757686E+02  0.10124445270E+03  0.10862644366E+03  0.00000000000E+00 0.  1.
<mgrwt>
<rscale>  4 0.44385019E+03</rscale>
<asrwt>0</asrwt>
<pdfrwt beam="1">  1        2 0.13727260E+00 0.44385019E+03</pdfrwt>
<pdfrwt beam="2">  1       -2 0.84918486E-02 0.44385019E+03</pdfrwt>
<totfact> 0.26547874E+03</totfact>
</mgrwt>
</event>
<event>
 5    0  0.5719562E-003  0.7098037E+03  0.7546771E-02  0.9700612E-01
         -2   -1    0    0    0  501 -0.00000000000E+00  0.00000000000E+00  0.28267462594E+03  0.28267462594E+03  0.00000000000E+00 0.  1.
          2   -1    0    0  502    0  0.00000000000E+00 -0.00000000000E+00 -0.44558407435E+03  0.44558407435E+03  0.00000000000E+00 0. -1.
         25    1    1    2    0    0  0.24517013834E+03  0.92613143510E+02 -0.14329086094E+03  0.32379447481E+03  0.12500000000E+03 0.  0.
          3    1    1    2  502    0 -0.30631207587E+03 -0.24230669844E+02 -0.41775092813E+02  0.31009574580E+03  0.00000000000E+00 0.  1.
         -3    1    1    2    0  501  0.61141937531E+02 -0.68382473666E+02  0.22156505345E+02  0.94368479690E+02  0.00000000000E+00 0. -1.
<mgrwt>
<rscale>  4 0.70980367E+03</rscale>
<asrwt>0</asrwt>
<pdfrwt beam="1">  1        2 0.68551397E-01 0.70980367E+03</pdfrwt>
<pdfrwt beam="2">  1       -2 0.43488404E-01 0.70980367E+03</pdfrwt>
<totfact> 0.35561850E+02</totfact>
</mgrwt>
</event>
<event>
 5    0  0.5719562E-003  0.6209796E+03  0.7546771E-02  0.9862811E-01
         -2   -1    0    0    0  501 -0.00000000000E+00  0.00000000000E+00  0.13641569433E+03  0.13641569433E+03  0.00000000000E+00 0.  1.
          2   -1    0    0  502    0  0.00000000000E+00 -0.00000000000E+00 -0.70669233759E+03  0.70669233759E+03  0.00000000000E+00 0. -1.
         25    1    1    2    0    0 -0.26731053751E+02 -0.28717413601E+03 -0.28211966728E+03  0.42237428934E+03  0.12500000000E+03 0.  0.
          1    1    1    2  502    0 -0.23148901778E+02  0.18771180526E+03 -0.13934479733E+03  0.23492246813E+03  0.00000000000E+00 0.  1.
         -1    1    1    2    0  501  0.49879955528E+02  0.99462330742E+02 -0.14881217864E+03  0.18581127445E+03  0.00000000000E+00 0. -1.
<mgrwt>
<rscale>  4 0.62097963E+03</rscale>
<asrwt>0</asrwt>
<pdfrwt beam="1">  1        2 0.10872190E+00 0.62097963E+03</pdfrwt>
<pdfrwt beam="2">  1       -2 0.20987030E-01 0.62097963E+03</pdfrwt>
<totfact> 0.79771980E+02</totfact>
</mgrwt>
</event>
<event>
 5    0  0.5719562E-003  0.6122061E+03  0.7546771E-02  0.9880401E-01
          2   -1    0    0  502    0  0.00000000000E+00  0.00000000000E+00  0.10657995589E+04  0.10657995589E+04  0.00000000000E+00 0. -1.
         -2   -1    0    0    0  501 -0.00000000000E+00 -0.00000000000E+00 -0.87914359427E+02  0.87914359427E+02  0.00000000000E+00 0.  1.
         25    1    1    2    0    0 -0.72544685208E+02  0.27369151318E+03  0.45579285653E+03  0.55094637108E+03  0.12500000000E+03 0.  0.
          3    1    1    2  502    0 -0.82795415123E+01 -0.13615079081E+03  0.29753803122E+03  0.32731402150E+03  0.00000000000E+00 0. -1.
         -3    1    1    2    0  501  0.80824226720E+02 -0.13754072237E+03  0.22455431172E+03  0.27545352575E+03  0.00000000000E+00 0.  1.
<mgrwt>
<rscale>  4 0.61220613E+03</rscale>
<asrwt>0</asrwt>
<pdfrwt beam="1">  1        2 0.16396915E+00 0.61220613E+03</pdfrwt>
<pdfrwt beam="2">  1       -2 0.13525287E-01 0.61220613E+03</pdfrwt>
<totfact> 0.96284138E+02</totfact>
</mgrwt>
</event>
<event>
 5    0  0.5719562E-003  0.7933458E+03  0.7546771E-02  0.9569699E-01
          2   -1    0    0  502    0  0.00000000000E+00  0.00000000000E+00  0.29488059811E+04  0.29488059811E+04  0.00000000000E+00 0. -1.
         -2   -1    0    0    0  501 -0.00000000000E+00 -0.00000000000E+00 -0.53360377006E+02  0.53360377006E+02  0.00000000000E+00 0.  1.
         25    1    1    2    0    0  0.62927664148E+02 -0.26318236689E+03  0.15640322943E+04  0.15921830506E+04  0.12500000000E+03 0.  0.
          4    1    1    2  502    0 -0.17977853666E+03  0.29052968125E+03  0.10453947517E+04  0.10998081673E+04  0.00000000000E+00 0.  1.
         -4    1    1    2    0  501  0.11685087251E+03 -0.27347314359E+02  0.28601855804E+03  0.31017514012E+03  0.00000000000E+00 0. -1.
<mgrwt>
<rscale>  4 0.79334582E+03</rscale>
<asrwt>0</asrwt>
<pdfrwt beam="1">  1        2 0.45366233E+00 0.79334582E+03</pdfrwt>
<pdfrwt beam="2">  1       -2 0.82092910E-02 0.79334582E+03</pdfrwt>
<totfact> 0.18548884E+02</totfact>
</mgrwt>
</event>
<event>
 5    0  0.5719562E-003  0.6313000E+03  0.7546771E-02  0.9842515E-01
         -1   -1    0    0    0  501 -0.00000000000E+00  0.00000000000E+00  0.25516602186E+02  0.25516602186E+02  0.00000000000E+00 0. -1.
          1   -1    0    0  502    0  0.00000000000E+00 -0.00000000000E+00 -0.39047093978E+04  0.39047093978E+04  0.00000000000E+00 0.  1.
         25    1    1    2    0    0  0.16971753410E+03  0.11294294070E+03 -0.80978783947E+03  0.84435862890E+03  0.12500000000E+03 0.  0.
          3    1    1    2  502    0 -0.20239848451E+03 -0.13710728629E+03 -0.18877336026E+04  0.19034972311E+04  0.00000000000E+00 0.  1.
         -3    1    1    2    0  501  0.32680950417E+02  0.24164345591E+02 -0.11816713535E+04  0.11823701400E+04  0.00000000000E+00 0. -1.
<mgrwt>
<rscale>  4 0.63129998E+03</rscale>
<asrwt>0</asrwt>
<pdfrwt beam="1">  1        1 0.60072414E+00 0.63129998E+03</pdfrwt>
<pdfrwt beam="2">  1       -1 0.39256336E-02 0.63129998E+03</pdfrwt>
<totfact> 0.34750680E+01</totfact>
</mgrwt>
</event>
<event>
 5    0  0.5719562E-003  0.4720889E+03  0.7546771E-02  0.1021332E+00
         -1   -1    0    0    0  501 -0.00000000000E+00  0.00000000000E+00  0.52780535072E+02  0.52780535072E+02  0.00000000000E+00 0.  1.
          1   -1    0    0  502    0  0.00000000000E+00 -0.00000000000E+00 -0.10556349754E+04  0.10556349754E+04  0.00000000000E+00 0. -1.
         25    1    1    2    0    0 -0.19798522079E+03  0.82947885737E+02 -0.61180034526E+03  0.66030535501E+03  0.12500000000E+03 0.  0.
          3    1    1    2  502    0  0.55092809782E+02 -0.44536497066E+02 -0.12511257367E+03  0.14377716561E+03  0.00000000000E+00 0. -1.
         -3    1    1    2    0  501  0.14289241101E+03 -0.38411388671E+02 -0.26594152137E+03  0.30433298982E+03  0.00000000000E+00 0.  1.
<mgrwt>
<rscale>  4 0.47208889E+03</rscale>
<asrwt>0</asrwt>
<pdfrwt beam="1">  1        1 0.16240536E+00 0.47208889E+03</pdfrwt>
<pdfrwt beam="2">  1       -1 0.81200834E-02 0.47208889E+03</pdfrwt>
<totfact> 0.12183265E+03</totfact>
</mgrwt>
</event>
<event>
 5    0  0.5719562E-003  0.5317374E+03  0.7546771E-02  0.1005812E+00
          2   -1    0    0  502    0  0.00000000000E+00  0.00000000000E+00  0.25882026711E+04  0.25882026711E+04  0.00000000000E+00 0. -1.
         -2   -1    0    0    0  501 -0.00000000000E+00 -0.00000000000E+00 -0.27310908088E+02  0.27310908088E+02  0.00000000000E+00 0.  1.
         25    1    1    2    0    0 -0.19110382921E+03  0.11904711823E+03  0.18200962521E+04  0.18382242129E+04  0.12500000000E+03 0.  0.
          1    1    1    2  502    0  0.14907691928E+03 -0.12281626637E+03  0.61235066672E+03  0.64209119460E+03  0.00000000000E+00 0. -1.
         -1    1    1    2    0  501  0.42026909928E+02  0.37691481490E+01  0.12844484423E+03  0.13519817175E+03  0.00000000000E+00 0.  1.
<mgrwt>
<rscale>  4 0.53173740E+03</rscale>
<asrwt>0</asrwt>
<pdfrwt beam="1">  1        2 0.39818484E+00 0.53173740E+03</pdfrwt>
<pdfrwt beam="2">  1       -2 0.42016802E-02 0.53173740E+03</pdfrwt>
<totfact> 0.88595587E+02</totfact>
</mgrwt>
</event>
<event>
 5    0  0.5719562E-003  0.5802881E+03  0.7546771E-02  0.9947167E-01
          1   -1    0    0  502    0  0.00000000000E+00  0.00000000000E+00  0.33191335276E+03  0.33191335276E+03  0.00000000000E+00 0.  1.
         -1   -1    0    0    0  501 -0.00000000000E+00 -0.00000000000E+00 -0.25363116772E+03  0.25363116772E+03  0.00000000000E+00 0. -1.
         25    1    1    2    0    0  0.20646073176E+03  0.15073085512E+02  0.20369083554E+03  0.31617746306E+03  0.12500000000E+03 0.  0.
          2    1    1    2  502    0 -0.71722187098E+02  0.40443180083E+02 -0.89544641252E+01  0.82824545668E+02  0.00000000000E+00 0.  1.
         -2    1    1    2    0  501 -0.13473854466E+03 -0.55516265595E+02 -0.11645418638E+03  0.18654251175E+03  0.00000000000E+00 0. -1.
<mgrwt>
<rscale>  4 0.58028811E+03</rscale>
<asrwt>0</asrwt>
<pdfrwt beam="1">  1        1 0.51063592E-01 0.58028811E+03</pdfrwt>
<pdfrwt beam="2">  1       -1 0.39020180E-01 0.58028811E+03</pdfrwt>
<totfact> 0.49495659E+02</totfact>
</mgrwt>
</event>
<event>
 5    0  0.5719562E-003  0.5909719E+03  0.7546771E-02  0.9924316E-01
         -2   -1    0    0    0  501 -0.00000000000E+00  0.00000000000E+00  0.71638670169E+02  0.71638670169E+02  0.00000000000E+00 0. -1.
          2   -1    0    0  502    0  0.00000000000E+00 -0.00000000000E+00 -0.12187823446E+04  0.12187823446E+04  0.00000000000E+00 0.  1.
         25    1    1    2    0    0  0.56774399801E+02 -0.25449791244E+03 -0.81683167353E+03  0.86650533916E+03  0.12500000000E+03 0.  0.
          1    1    1    2  502    0 -0.81399220585E+00  0.24324722076E+02 -0.11998493401E+02  0.27135189907E+02  0.00000000000E+00 0.  1.
         -1    1    1    2    0  501 -0.55960407595E+02  0.23017319036E+03 -0.31831350750E+03  0.39678048571E+03  0.00000000000E+00 0. -1.
<mgrwt>
<rscale>  4 0.59097190E+03</rscale>
<asrwt>0</asrwt>
<pdfrwt beam="1">  1        2 0.18750496E+00 0.59097190E+03</pdfrwt>
<pdfrwt beam="2">  1       -2 0.11021335E-01 0.59097190E+03</pdfrwt>
<totfact> 0.10939731E+03</totfact>
</mgrwt>
</event>
<event>
 5    0  0.5719562E-003  0.4659512E+03  0.7546771E-02  0.1023069E+00
          1   -1    0    0  502    0  0.00000000000E+00  0.00000000000E+00  0.26542806574E+04  0.26542806574E+04  0.00000000000E+00 0.  1.
         -1   -1    0    0    0  501 -0.00000000000E+00 -0.00000000000E+00 -0.20449089412E+02  0.20449089412E+02  0.00000000000E+00 0. -1.
         25    1    1    2    0    0 -0.14898811711E+03 -0.13487536814E+03  0.96829454800E+03  0.99679895448E+03  0.12500000000E+03 0.  0.
          4    1    1    2  502    0  0.11814132931E+03  0.11746424088E+03  0.12864909194E+04  0.12972332510E+04  0.00000000000E+00 0.  1.
         -4    1    1    2    0  501  0.30846787800E+02  0.17411127255E+02  0.37904610051E+03  0.38069754134E+03  0.00000000000E+00 0. -1.
<mgrwt>
<rscale>  4 0.46595117E+03</rscale>
<asrwt>0</asrwt>
<pdfrwt beam="1">  1        1 0.40835060E+00 0.46595117E+03</pdfrwt>
<pdfrwt beam="2">  1       -1 0.31460159E-02 0.46595117E+03</pdfrwt>
<totfact> 0.42732026E+02</totfact>
</mgrwt>
</event>
<event>
 5    0  0.5719562E-003  0.7570546E+03  0.7546771E-02  0.9624347E-01
         -3   -1    0    0    0  501 -0.00000000000E+00  0.00000000000E+00  0.15748087748E+03  0.15748087748E+03  0.00000000000E+00 0. -1.
          3   -1    0    0  502    0  0.00000000000E+00 -0.00000000000E+00 -0.90984333951E+03  0.90984333951E+03  0.00000000000E+00 0.  1.
         25    1    1    2    0    0  0.50253166221E+02  0.34105066007E+03 -0.23123840167E+03  0.43351716443E+03  0.12500000000E+03 0.  0.
          4    1    1    2  502    0  0.23030778064E+02 -0.20346679596E+03 -0.28844661089E+03  0.35373804027E+03  0.00000000000E+00 0. -1.
         -4    1    1    2    0  501 -0.73283944285E+02 -0.13758386411E+03 -0.23267744947E+03  0.28006901229E+03  0.00000000000E+00 0.  1.
<mgrwt>
<rscale>  4 0.75705463E+03</rscale>
<asrwt>0</asrwt>
<pdfrwt beam="1">  1        3 0.13997590E+00 0.75705463E+03</pdfrwt>
<pdfrwt beam="2">  1       -3 0.24227827E-01 0.75705463E+03</pdfrwt>
<totfact> 0.16506394E+01</totfact>
</mgrwt>
</event>
<event>
 5    0  0.5719562E-003  0.5512675E+03  0.7546771E-02  0.1001201E+00
          1   -1    0    0  502    0  0.00000000000E+00  0.00000000000E+00  0.45424513849E+03  0.45424513849E+03  0.00000000000E+00 0. -1.
         -1   -1    0    0    0  501 -0.00000000000E+00 -0.00000000000E+00 -0.16725323795E+03  0.16725323795E+03  0.00000000000E+00 0.  1.
         25    1    1    2    0    0  0.21799473263E+03 -0.76342769971E+02  0.68686115365E+02  0.27146400208E+03  0.12500000000E+03 0.  0.
          1    1    1    2  502    0 -0.70883829841E+02 -0.73232288953E+00  0.15830067008E+03  0.17344784743E+03  0.00000000000E+00 0. -1.
         -1    1    1    2    0  501 -0.14711090279E+03  0.77075092860E+02  0.60005115102E+02  0.17658652694E+03  0.00000000000E+00 0.  1.
<mgrwt>
<rscale>  4 0.55126752E+03</rscale>
<asrwt>0</asrwt>
<pdfrwt beam="1">  1        1 0.69883867E-01 0.55126752E+03</pdfrwt>
<pdfrwt beam="2">  1       -1 0.25731268E-01 0.55126752E+03</pdfrwt>
<totfact> 0.67911977E+02</totfact>
</mgrwt>
</event>
<event>
 5    0  0.5719562E-003  0.4735766E+03  0.7546771E-02  0.1020916E+00
         -2   -1    0    0    0  501 -0.00000000000E+00  0.00000000000E+00  0.49374784320E+02  0.49374784320E+02  0.00000000000E+00 0. -1.
          2   -1    0    0  502    0  0.00000000000E+00 -0.00000000000E+00 -0.11355736484E+04  0.11355736484E+04  0.00000000000E+00 0.  1.
         25    1    1    2    0    0 -0.20232972125E+03 -0.63154853001E+02 -0.45351842754E+03  0.51597462697E+03  0.12500000000E+03 0.  0.
          4    1    1    2  502    0  0.22296688985E+02  0.46907401464E+01 -0.12698363643E+03  0.12901158593E+03  0.00000000000E+00 0. -1.
         -4    1    1    2    0  501  0.18003303226E+03  0.58464112855E+02 -0.50569680014E+03  0.53996221985E+03  0.00000000000E+00 0.  1.
<mgrwt>
<rscale>  4 0.47357662E+03</rscale>
<asrwt>0</asrwt>
<pdfrwt beam="1">  1        2 0.17470363E+00 0.47357662E+03</pdfrwt>
<pdfrwt beam="2">  1       -2 0.75961208E-02 0.47357662E+03</pdfrwt>
<totfact> 0.22326794E+03</totfact>
</mgrwt>
</event>
<event>
 5    0  0.5719562E-003  0.7072446E+03  0.7546771E-02  0.9704923E-01
          2   -1    0    0  502    0  0.00000000000E+00  0.00000000000E+00  0.67732978773E+03  0.67732978773E+03  0.00000000000E+00 0. -1.
         -2   -1    0    0    0  501 -0.00000000000E+00 -0.00000000000E+00 -0.18462016330E+03  0.18462016330E+03  0.00000000000E+00 0.  1.
         25    1    1    2    0    0 -0.20132875992E+03 -0.21970798137E+03  0.73222354987E+02  0.33134782316E+03  0.12500000000E+03 0.  0.
          2    1    1    2  502    0  0.17126399723E+03  0.23070740596E+03  0.40199055905E+03  0.49411908836E+03  0.00000000000E+00 0. -1.
         -2    1    1    2    0  501  0.30064762691E+02 -0.10999424595E+02  0.17496710396E+02  0.36483039508E+02  0.00000000000E+00 0.  1.
<mgrwt>
<rscale>  4 0.70724461E+03</rscale>
<asrwt>0</asrwt>
<pdfrwt beam="1">  1        2 0.10420458E+00 0.70724461E+03</pdfrwt>
<pdfrwt beam="2">  1       -2 0.28403102E-01 0.70724461E+03</pdfrwt>
<totfact> 0.48760424E+02</totfact>
</mgrwt>
</event>
<event>
 5    0  0.5719562E-003  0.9322951E+03  0.7546771E-02  0.9386088E-01
          4   -1    0    0  502    0  0.00000000000E+00  0.00000000000E+00  0.29747180374E+03  0.29747180374E+03  0.00000000000E+00 0.  1.
         -4   -1    0    0    0  501 -0.00000000000E+00 -0.00000000000E+00 -0.73046760500E+03  0.73046760500E+03  0.00000000000E+00 0. -1.
         25    1    1    2    0    0 -0.11181657318E+03  0.36003708587E+03 -0.19330345885E+03  0.44172488773E+03  0.12500000000E+03 0.  0.
          3    1    1    2  502    0 -0.70514190851E+02  0.33062061606E+01  0.50452693091E+02  0.86767830160E+02  0.00000000000E+00 0.  1.
         -3    1    1    2    0  501  0.18233076403E+03 -0.36334329203E+03 -0.29014503550E+03  0.49944669085E+03  0.00000000000E+00 0. -1.
<mgrwt>
<rscale>  4 0.93229505E+03</rscale>
<asrwt>0</asrwt>
<pdfrwt beam="1">  1        4 0.45764893E-01 0.93229505E+03</pdfrwt>
<pdfrwt beam="2">  1       -4 0.11237963E+00 0.93229505E+03</pdfrwt>
<totfact> 0.57345027E+00</totfact>
</mgrwt>
</event>
<event>
 5    0  0.5719562E-003  0.5821852E+03  0.7546771E-02  0.9943071E-01
          2   -1    0    0  502    0  0.00000000000E+00  0.00000000000E+00  0.31100932668E+03  0.31100932668E+03  0.00000000000E+00 0.  1.
         -2   -1    0    0    0  501 -0.00000000000E+00 -0.00000000000E+00 -0.27245128536E+03  0.27245128536E+03  0.00000000000E+00 0. -1.
         25    1    1    2    0    0  0.15183909936E+03 -0.13157752717E+03  0.15568478549E+03  0.28324990765E+03  0.12500000000E+03 0.  0.
          3    1    1    2  502    0 -0.89888315410E+02  0.37093894661E+02 -0.15333367219E+03  0.18156839289E+03  0.00000000000E+00 0. -1.
         -3    1    1    2    0  501 -0.61950783946E+02  0.94483632506E+02  0.36206928020E+02  0.11864231151E+03  0.00000000000E+00 0.  1.
<mgrwt>
<rscale>  4 0.58218516E+03</rscale>
<asrwt>0</asrwt>
<pdfrwt beam="1">  1        2 0.47847589E-01 0.58218516E+03</pdfrwt>
<pdfrwt beam="2">  1       -2 0.41915582E-01 0.58218516E+03</pdfrwt>
<totfact> 0.57307377E+02</totfact>
</mgrwt>
</event>
<event>
 5    0  0.5719562E-003  0.5680159E+03  0.7546771E-02  0.9974079E-01
          2   -1    0    0  502    0  0.00000000000E+00  0.00000000000E+00  0.26426083021E+04  0.26426083021E+04  0.00000000000E+00 0. -1.
         -2   -1    0    0    0  501 -0.00000000000E+00 -0.00000000000E+00 -0.30523072798E+02  0.30523072798E+02  0.00000000000E+00 0.  1.
         25    1    1    2    0    0  0.18445712085E+03  0.16389095321E+03  0.10812499955E+04  0.11160695439E+04  0.12500000000E+03 0.  0.
          4    1    1    2  502    0 -0.83965456943E+02 -0.14960105870E+02  0.26104633396E+03  0.27462554725E+03  0.00000000000E+00 0.  1.
         -4    1    1    2    0  501 -0.10049166391E+03 -0.14893084734E+03  0.12697888998E+04  0.12824362838E+04  0.00000000000E+00 0. -1.
<mgrwt>
<rscale>  4 0.56801593E+03</rscale>
<asrwt>0</asrwt>
<pdfrwt beam="1">  1        2 0.40655494E+00 0.56801593E+03</pdfrwt>
<pdfrwt beam="2">  1       -2 0.46958595E-02 0.56801593E+03</pdfrwt>
<totfact> 0.69269396E+02</totfact>
</mgrwt>
</event>
<event>
 5    0  0.5719562E-003  0.6824246E+03  0.7546771E-02  0.9747770E-01
          1   -1    0    0  502    0  0.00000000000E+00  0.00000000000E+00  0.26841980640E+04  0.26841980640E+04  0.00000000000E+00 0. -1.
         -1   -1    0    0    0  501 -0.00000000000E+00 -0.00000000000E+00 -0.43374534475E+02  0.43374534475E+02  0.00000000000E+00 0.  1.
         25    1    1    2    0    0  0.20036406644E+03  0.84866960984E+02  0.18262024963E+04  0.18433634253E+04  0.12500000000E+03 0.  0.
          2    1    1    2  502    0 -0.33710532607E+02 -0.28486045469E+02 -0.63587284674E+01  0.44590225642E+02  0.00000000000E+00 0.  1.
         -2    1    1    2    0  501 -0.16665353383E+03 -0.56380915515E+02  0.82097976172E+03  0.83961894758E+03  0.00000000000E+00 0. -1.
<mgrwt>
<rscale>  4 0.68242462E+03</rscale>
<asrwt>0</asrwt>
<pdfrwt beam="1">  1        1 0.41295342E+00 0.68242462E+03</pdfrwt>
<pdfrwt beam="2">  1       -1 0.66730074E-02 0.68242462E+03</pdfrwt>
<totfact> 0.12645235E+02</totfact>
</mgrwt>
</event>
<event>
 5    0  0.5719562E-003  0.5761806E+03  0.7546771E-02  0.9956094E-01
          1   -1    0    0  502    0  0.00000000000E+00  0.00000000000E+00  0.34748300190E+03  0.34748300190E+03  0.00000000000E+00 0. -1.
         -1   -1    0    0    0  501 -0.00000000000E+00 -0.00000000000E+00 -0.23884914148E+03  0.23884914148E+03  0.00000000000E+00 0.  1.
         25    1    1    2    0    0  0.40898472597E+02 -0.24430247725E+03  0.14502450890E+03  0.31307106802E+03  0.12500000000E+03 0.  0.
          4    1    1    2  502    0 -0.87281554730E+01  0.92147996083E+02 -0.67631304967E+02  0.11463606453E+03  0.00000000000E+00 0.  1.
         -4    1    1    2    0  501 -0.32170317124E+02  0.15215448116E+03  0.31240656492E+02  0.15862501083E+03  0.00000000000E+00 0. -1.
<mgrwt>
<rscale>  4 0.57618059E+03</rscale>
<asrwt>0</asrwt>
<pdfrwt beam="1">  1        1 0.53458924E-01 0.57618059E+03</pdfrwt>
<pdfrwt beam="2">  1       -1 0.36746022E-01 0.57618059E+03</pdfrwt>
<totfact> 0.51944340E+02</totfact>
</mgrwt>
</event>
<event>
 5    0  0.5719562E-003  0.6626161E+03  0.7546771E-02  0.9783390E-01
          2   -1    0    0  502    0  0.00000000000E+00  0.00000000000E+00  0.11307361695E+04  0.11307361695E+04  0.00000000000E+00 0. -1.
         -2   -1    0    0    0  501 -0.00000000000E+00 -0.00000000000E+00 -0.97073948762E+02  0.97073948762E+02  0.00000000000E+00 0.  1.
         25    1    1    2    0    0  0.26540398709E+03  0.13079295443E+03  0.36285002688E+03  0.48459386635E+03  0.12500000000E+03 0.  0.
          1    1    1    2  502    0 -0.73687265238E+02 -0.80793849574E+02  0.14719583562E+03  0.18336868111E+03  0.00000000000E+00 0.  1.
         -1    1    1    2    0  501 -0.19171672185E+03 -0.49999104853E+02  0.52361635821E+03  0.55984757078E+03  0.00000000000E+00 0. -1.
<mgrwt>
<rscale>  4 0.66261610E+03</rscale>
<asrwt>0</asrwt>
<pdfrwt beam="1">  1        2 0.17395940E+00 0.66261610E+03</pdfrwt>
<pdfrwt beam="2">  1       -2 0.14934454E-01 0.66261610E+03</pdfrwt>
<totfact> 0.74312851E+02</totfact>
</mgrwt>
</event>
<event>
 5    0  0.5719562E-003  0.5252355E+03  0.7546771E-02  0.1007394E+00
          1   -1    0    0  502    0  0.00000000000E+00  0.00000000000E+00  0.55627747839E+03  0.55627747839E+03  0.00000000000E+00 0.  1.
         -1   -1    0    0    0  501 -0.00000000000E+00 -0.00000000000E+00 -0.12398143964E+03  0.12398143964E+03  0.00000000000E+00 0. -1.
         25    1    1    2    0    0  0.77402650446E+02  0.20939775760E+03  0.10490933970E+03  0.27653130156E+03  0.12500000000E+03 0.  0.
          3    1    1    2  502    0 -0.79445693564E+02 -0.16305657025E+03  0.20987746909E+03  0.27739433188E+03  0.00000000000E+00 0.  1.
         -3    1    1    2    0  501  0.20430431178E+01 -0.46341187348E+02  0.11750922996E+03  0.12633328459E+03  0.00000000000E+00 0. -1.
<mgrwt>
<rscale>  4 0.52523550E+03</rscale>
<asrwt>0</asrwt>
<pdfrwt beam="1">  1        1 0.85581149E-01 0.52523550E+03</pdfrwt>
<pdfrwt beam="2">  1       -1 0.19074068E-01 0.52523550E+03</pdfrwt>
<totfact> 0.85033087E+02</totfact>
</mgrwt>
</event>
<event>
 5    0  0.5719562E-003  0.5179743E+03  0.7546771E-02  0.1009191E+00
          2   -1    0    0  502    0  0.00000000000E+00  0.00000000000E+00  0.12488092136E+04  0.12488092136E+04  0.00000000000E+00 0. -1.
         -2   -1    0    0    0  501 -0.00000000000E+00 -0.00000000000E+00 -0.53710642551E+02  0.53710642551E+02  0.00000000000E+00 0.  1.
         25    1    1    2    0    0  0.23134158552E+03  0.32625087644E+02  0.78787809257E+03  0.83124016643E+03  0.12500000000E+03 0.  0.
          4    1    1    2  502    0 -0.20007177113E+03 -0.15290583425E+02  0.33060782010E+03  0.38673511123E+03  0.00000000000E+00 0.  1.
         -4    1    1    2    0  501 -0.31269814392E+02 -0.17334504219E+02  0.76612658341E+02  0.84544578458E+02  0.00000000000E+00 0. -1.
<mgrwt>
<rscale>  4 0.51797431E+03</rscale>
<asrwt>0</asrwt>
<pdfrwt beam="1">  1        2 0.19212447E+00 0.51797431E+03</pdfrwt>
<pdfrwt beam="2">  1       -2 0.82631767E-02 0.51797431E+03</pdfrwt>
<totfact> 0.16761098E+03</totfact>
</mgrwt>
</event>
<event>
 5    0  0.5719562E-003  0.5423954E+03  0.7546771E-02  0.1003270E+00
         -1   -1    0    0    0  501 -0.00000000000E+00  0.00000000000E+00  0.38924926830E+02  0.38924926830E+02  0.00000000000E+00 0.  1.
          1   -1    0    0  502    0  0.00000000000E+00 -0.00000000000E+00 -0.18894879562E+04  0.18894879562E+04  0.00000000000E+00 0. -1.
         25    1    1    2    0    0  0.18639306269E+02 -0.23783815963E+03 -0.75040899230E+03  0.79727853956E+03  0.12500000000E+03 0.  0.
          3    1    1    2  502    0  0.19180231777E+02  0.12541190309E+03 -0.36379614009E+03  0.38528386713E+03  0.00000000000E+00 0.  1.
         -3    1    1    2    0  501 -0.37819538046E+02  0.11242625654E+03 -0.73635789700E+03  0.74585047636E+03  0.00000000000E+00 0. -1.
<mgrwt>
<rscale>  4 0.54239536E+03</rscale>
<asrwt>0</asrwt>
<pdfrwt beam="1">  1        1 0.29069046E+00 0.54239536E+03</pdfrwt>
<pdfrwt beam="2">  1       -1 0.59884503E-02 0.54239536E+03</pdfrwt>
<totfact> 0.51879512E+02</totfact>
</mgrwt>
</event>
<event>
 5    0  0.5719562E-003  0.4666376E+03  0.7546771E-02  0.1022874E+00
          2   -1    0    0  502    0  0.00000000000E+00  0.00000000000E+00  0.88202168869E+03  0.88202168869E+03  0.00000000000E+00 0.  1.
         -2   -1    0    0    0  501 -0.00000000000E+00 -0.00000000000E+00 -0.61719186426E+02  0.61719186426E+02  0.00000000000E+00 0. -1.
         25    1    1    2    0    0  0.99674605842E+02  0.18017283720E+03  0.49494687662E+03  0.55044953355E+03  0.12500000000E+03 0.  0.
          4    1    1    2  502    0 -0.51757642303E+02 -0.15940056605E+03  0.23017977013E+03  0.28472815205E+03  0.00000000000E+00 0. -1.
         -4    1    1    2    0  501 -0.47916963539E+02 -0.20772271157E+02  0.95175855520E+02  0.10856318952E+03  0.00000000000E+00 0.  1.
<mgrwt>
<rscale>  4 0.46663759E+03</rscale>
<asrwt>0</asrwt>
<pdfrwt beam="1">  1        2 0.13569564E+00 0.46663759E+03</pdfrwt>
<pdfrwt beam="2">  1       -2 0.94952601E-02 0.46663759E+03</pdfrwt>
<totfact> 0.22563318E+03</totfact>
</mgrwt>
</event>
<event>
 5    0  0.5719562E-003  0.6804437E+03  0.7546771E-02  0.9751273E-01
         -2   -1    0    0    0  501 -0.00000000000E+00  0.00000000000E+00  0.65492624635E+02  0.65492624635E+02  0.00000000000E+00 0. -1.
          2   -1    0    0  502    0  0.00000000000E+00 -0.00000000000E+00 -0.17673882035E+04  0.17673882035E+04  0.00000000000E+00 0.  1.
         25    1    1    2    0    0  0.14980940154E+03  0.26868180277E+03 -0.11158054190E+04  0.11641647225E+04  0.12500000000E+03 0.  0.
          2    1    1    2  502    0 -0.38478772934E+02 -0.73050258100E+02 -0.80639389052E+02  0.11541086275E+03  0.00000000000E+00 0. -1.
         -2    1    1    2    0  501 -0.11133062861E+03 -0.19563154467E+03 -0.50545077080E+03  0.55330524292E+03  0.00000000000E+00 0.  1.
<mgrwt>
<rscale>  4 0.68044366E+03</rscale>
<asrwt>0</asrwt>
<pdfrwt beam="1">  1        2 0.27190590E+00 0.68044366E+03</pdfrwt>
<pdfrwt beam="2">  1       -2 0.10075788E-01 0.68044366E+03</pdfrwt>
<totfact> 0.62349206E+02</totfact>
</mgrwt>
</event>
<event>
 5    0  0.5719562E-003  0.6959018E+03  0.7546771E-02  0.9724266E-01
          1   -1    0    0  502    0  0.00000000000E+00  0.00000000000E+00  0.65476557985E+03  0.65476557985E+03  0.00000000000E+00 0. -1.
         -1   -1    0    0    0  501 -0.00000000000E+00 -0.00000000000E+00 -0.18490559401E+03  0.18490559401E+03  0.00000000000E+00 0.  1.
         25    1    1    2    0    0  0.15269766246E+03 -0.26000067092E+03  0.19393028231E+03  0.37967206823E+03  0.12500000000E+03 0.  0.
          4    1    1    2  502    0 -0.16316219393E+03  0.19583181799E+03  0.10241138156E+03  0.27470000644E+03  0.00000000000E+00 0. -1.
         -4    1    1    2    0  501  0.10464531465E+02  0.64168852926E+02  0.17351832197E+03  0.18529909919E+03  0.00000000000E+00 0.  1.
<mgrwt>
<rscale>  4 0.69590177E+03</rscale>
<asrwt>0</asrwt>
<pdfrwt beam="1">  1        1 0.10073317E+00 0.69590177E+03</pdfrwt>
<pdfrwt beam="2">  1       -1 0.28447015E-01 0.69590177E+03</pdfrwt>
<totfact> 0.34121334E+02</totfact>
</mgrwt>
</event>
<event>
 5    0  0.5719562E-003  0.9959066E+03  0.7546771E-02  0.9313046E-01
          2   -1    0    0  502    0  0.00000000000E+00  0.00000000000E+00  0.33516035761E+03  0.33516035761E+03  0.00000000000E+00 0.  1.
         -2   -1    0    0    0  501 -0.00000000000E+00 -0.00000000000E+00 -0.73981745998E+03  0.73981745998E+03  0.00000000000E+00 0. -1.
         25    1    1    2    0    0  0.32857970564E+03  0.30880185709E+03 -0.37782049798E+03  0.60141212043E+03  0.12500000000E+03 0.  0.
          2    1    1    2  502    0 -0.17053494516E+03 -0.22482178185E+03  0.34705246467E+02  0.28430873227E+03  0.00000000000E+00 0.  1.
         -2    1    1    2    0  501 -0.15804476048E+03 -0.83980075245E+02 -0.61541850854E+02  0.18925696489E+03  0.00000000000E+00 0. -1.
<mgrwt>
<rscale>  4 0.99590659E+03</rscale>
<asrwt>0</asrwt>
<pdfrwt beam="1">  1        2 0.51563132E-01 0.99590659E+03</pdfrwt>
<pdfrwt beam="2">  1       -2 0.11381807E+00 0.99590659E+03</pdfrwt>
<totfact> 0.58565496E+01</totfact>
</mgrwt>
</event>
<event>
 5    0  0.5719562E-003  0.6380755E+03  0.7546771E-02  0.9829415E-01
         -2   -1    0    0    0  501 -0.00000000000E+00  0.00000000000E+00  0.10960126712E+03  0.10960126712E+03  0.00000000000E+00 0. -1.
          2   -1    0    0  502    0  0.00000000000E+00 -0.00000000000E+00 -0.92868542481E+03  0.92868542481E+03  0.00000000000E+00 0.  1.
         25    1    1    2    0    0 -0.95830859452E+02  0.19986445578E+03 -0.27435346302E+03  0.37419804513E+03  0.12500000000E+03 0.  0.
          2    1    1    2  502    0 -0.99582519716E+02 -0.98561264993E+01 -0.20841532089E+03  0.23119422018E+03  0.00000000000E+00 0.  1.
         -2    1    1    2    0  501  0.19541337917E+03 -0.19000832928E+03 -0.33631537378E+03  0.43289442662E+03  0.00000000000E+00 0. -1.
<mgrwt>
<rscale>  4 0.63807554E+03</rscale>
<asrwt>0</asrwt>
<pdfrwt beam="1">  1        2 0.14287468E+00 0.63807554E+03</pdfrwt>
<pdfrwt beam="2">  1       -2 0.16861733E-01 0.63807554E+03</pdfrwt>
<totfact> 0.81053958E+02</totfact>
</mgrwt>
</event>
<event>
 5    0  0.5719562E-003  0.5214097E+03  0.7546771E-02  0.1008337E+00
         -1   -1    0    0    0  501 -0.00000000000E+00  0.00000000000E+00  0.56420603034E+02  0.56420603034E+02  0.00000000000E+00 0.  1.
          1   -1    0    0  502    0  0.00000000000E+00 -0.00000000000E+00 -0.12046491240E+04  0.12046491240E+04  0.00000000000E+00 0. -1.
         25    1    1    2    0    0  0.17955764822E+03  0.12462103417E+03 -0.86252532210E+03  0.89852450298E+03  0.12500000000E+03 0.  0.
          3    1    1    2  502    0 -0.93713843867E+02 -0.64380881259E+02 -0.11172690860E+03  0.15940540929E+03  0.00000000000E+00 0.  1.
         -3    1    1    2    0  501 -0.85843804355E+02 -0.60240152907E+02 -0.17397629024E+03  0.20313981475E+03  0.00000000000E+00 0. -1.
<mgrwt>
<rscale>  4 0.52140974E+03</rscale>
<asrwt>0</asrwt>
<pdfrwt beam="1">  1        1 0.18533064E+00 0.52140974E+03</pdfrwt>
<pdfrwt beam="2">  1       -1 0.86800923E-02 0.52140974E+03</pdfrwt>
<totfact> 0.85332590E+02</totfact>
</mgrwt>
</event>
<event>
 5    0  0.5719562E-003  0.6724771E+03  0.7546771E-02  0.9765493E-01
          2   -1    0    0  502    0  0.00000000000E+00  0.00000000000E+00  0.49701900034E+03  0.49701900034E+03  0.00000000000E+00 0. -1.
         -2   -1    0    0    0  501 -0.00000000000E+00 -0.00000000000E+00 -0.22746887616E+03  0.22746887616E+03  0.00000000000E+00 0.  1.
         25    1    1    2    0    0  0.16226155615E+03  0.19931218290E+03  0.25850049365E+03  0.38535913649E+03  0.12500000000E+03 0.  0.
          3    1    1    2  502    0 -0.21566215079E+03 -0.14257075520E+03  0.25852393657E+02  0.25981710832E+03  0.00000000000E+00 0.  1.
         -3    1    1    2    0  501  0.53400594641E+02 -0.56741427706E+02 -0.14802763132E+02  0.79311631697E+02  0.00000000000E+00 0. -1.
<mgrwt>
<rscale>  4 0.67247707E+03</rscale>
<asrwt>0</asrwt>
<pdfrwt beam="1">  1        2 0.76464461E-01 0.67247707E+03</pdfrwt>
<pdfrwt beam="2">  1       -2 0.34995212E-01 0.67247707E+03</pdfrwt>
<totfact> 0.47858708E+02</totfact>
</mgrwt>
</event>
<event>
 5    0  0.5719562E-003  0.5935066E+03  0.7546771E-02  0.9918970E-01
          2   -1    0    0  502    0  0.00000000000E+00  0.00000000000E+00  0.63914825394E+03  0.63914825394E+03  0.00000000000E+00 0.  1.
         -2   -1    0    0    0  501 -0.00000000000E+00 -0.00000000000E+00 -0.13778106711E+03  0.13778106711E+03  0.00000000000E+00 0. -1.
         25    1    1    2    0    0  0.65257535331E+02  0.21555681877E+03  0.87550834789E+02  0.27205410621E+03  0.12500000000E+03 0.  0.
          3    1    1    2  502    0 -0.85600479332E+02 -0.35257118210E+02  0.69800087252E+02  0.11594204857E+03  0.00000000000E+00 0. -1.
         -3    1    1    2    0  501  0.20342944001E+02 -0.18029970056E+03  0.34401626479E+03  0.38893316628E+03  0.00000000000E+00 0.  1.
<mgrwt>
<rscale>  4 0.59350662E+03</rscale>
<asrwt>0</asrwt>
<pdfrwt beam="1">  1        2 0.98330499E-01 0.59350662E+03</pdfrwt>
<pdfrwt beam="2">  1       -2 0.21197088E-01 0.59350662E+03</pdfrwt>
<totfact> 0.88820029E+02</totfact>
</mgrwt>
</event>
