<event>
 5    0  0.6041737E-002  0.5533255E+03  0.7546771E-02  0.1000727E+00
         -1   -1    0    0    0  501 -0.00000000000E+00  0.00000000000E+00  0.15247073282E+04  0.15247073282E+04  0.00000000000E+00 0.  1.
          1   -1    0    0  503    0  0.00000000000E+00 -0.00000000000E+00 -0.50201299671E+02  0.50201299671E+02  0.00000000000E+00 0. -1.
         25    1    1    2    0    0  0.37101269073E+02  0.21467103948E+03  0.36061778384E+03  0.43946597750E+03  0.12500000000E+03 0.  0.
         21    1    1    2  502  501 -0.24276271901E+02 -0.18490340493E+03  0.98815195657E+03  0.10055957915E+04  0.00000000000E+00 0.  1.
         21    1    1    2  503  502 -0.12824997172E+02 -0.29767634546E+02  0.12573628816E+03  0.12984685895E+03  0.00000000000E+00 0.  1.
<mgrwt>
<rscale>  4 0.55332554E+03</rscale>
<asrwt>0</asrwt>
<pdfrwt beam="1">  1        1 0.77232781E-02 0.55332554E+03</pdfrwt>
<pdfrwt beam="2">  1       -1 0.23457032E+00 0.55332554E+03</pdfrwt>
<totfact> 0.88197521E+01</totfact>
</mgrwt>
</event>
<event>
 5    0  0.6041737E-002  0.5548921E+03  0.7546771E-02  0.1000368E+00
         -2   -1    0    0    0  501 -0.00000000000E+00  0.00000000000E+00  0.27343354303E+02  0.27343354303E+02  0.00000000000E+00 0.  1.
          2   -1    0    0  503    0  0.00000000000E+00 -0.00000000000E+00 -0.28151746496E+04  0.28151746496E+04  0.00000000000E+00 0. -1.
         25    1    1    2    0    0  0.54641412858E+02  0.22873455428E+03 -0.86673749863E+03  0.90673263526E+03  0.12500000000E+03 0.  0.
         21    1    1    2  502  501  0.40693648621E+01 -0.36430465181E+02 -0.33414135233E+03  0.33614607221E+03  0.00000000000E+00 0. -1.
         21    1    1    2  503  502 -0.58710777720E+02 -0.19230408910E+03 -0.15869524443E+04  0.15996392964E+04  0.00000000000E+00 0. -1.
<mgrwt>
<rscale>  4 0.55489213E+03</rscale>
<asrwt>0</asrwt>
<pdfrwt beam="1">  1        2 0.43310351E+00 0.55489213E+03</pdfrwt>
<pdfrwt beam="2">  1       -2 0.42066727E-02 0.55489213E+03</pdfrwt>
<totfact> 0.65270747E+02</totfact>
</mgrwt>
</event>
<event>
 5    0  0.6041737E-002  0.3875072E+03  0.7546771E-02  0.1048193E+00
          2   -1    0    0  503    0  0.00000000000E+00  0.00000000000E+00  0.13748866432E+04  0.13748866432E+04  0.00000000000E+00 0. -1.
         -2   -1    0    0    0  501 -0.00000000000E+00 -0.00000000000E+00 -0.49564088892E+02  0.49564088892E+02  0.00000000000E+00 0.  1.
         25    1    1    2    0    0  0.18923951185E+03 -0.97088436087E+02  0.50443903602E+03  0.56153494844E+03  0.12500000000E+03 0.  0.
         21    1    1    2  502  501 -0.90442260677E+02  0.10791043259E+03  0.28487502311E+03  0.31777073932E+03  0.00000000000E+00 0.  1.
         21    1    1    2  503  502 -0.98797251172E+02 -0.10821996500E+02  0.53600849519E+03  0.54514504433E+03  0.00000000000E+00 0.  1.
<mgrwt>
<rscale>  4 0.38750717E+03</rscale>
<asrwt>0</asrwt>
<pdfrwt beam="1">  1        2 0.21152099E+00 0.38750717E+03</pdfrwt>
<pdfrwt beam="2">  1       -2 0.76252455E-02 0.38750717E+03</pdfrwt>
<totfact> 0.16211334E+03</totfact>
</mgrwt>
</event>
<event>
 5    0  0.6041737E-002  0.4630188E+03  0.7546771E-02  0.1023909E+00
         -2   -1    0    0    0  501 -0.00000000000E+00  0.00000000000E+00  0.51758570464E+02  0.51758570464E+02  0.00000000000E+00 0. -1.
          2   -1    0    0  503    0  0.00000000000E+00 -0.00000000000E+00 -0.10355116786E+04  0.10355116786E+04  0.00000000000E+00 0.  1.
         25    1    1    2    0    0  0.19593635050E+03 -0.42018209337E+02 -0.35468105743E+03  0.42612232500E+03  0.12500000000E+03 0.  0.
         21    1    1    2  502  501 -0.17100382074E+03  0.26743750487E+02 -0.56012092040E+03  0.58625334146E+03  0.00000000000E+00 0.  1.
         21    1    1    2  503  502 -0.24932529761E+02  0.15274458849E+02 -0.68951130265E+02  0.74894582569E+02  0.00000000000E+00 0.  1.
<mgrwt>
<rscale>  4 0.46301881E+03</rscale>
<asrwt>0</asrwt>
<pdfrwt beam="1">  1        2 0.15930949E+00 0.46301881E+03</pdfrwt>
<pdfrwt beam="2">  1       -2 0.79628571E-02 0.46301881E+03</pdfrwt>
<totfact> 0.23821363E+03</totfact>
</mgrwt>
</event>
<event>
 5    0  0.6041737E-002  0.9888446E+03  0.7546771E-02  0.9320865E-01
          2   -1    0    0  503    0  0.00000000000E+00  0.00000000000E+00  0.71721795607E+03  0.71721795607E+03  0.00000000000E+00 0. -1.
         -2   -1    0    0    0  501 -0.00000000000E+00 -0.00000000000E+00 -0.34083557840E+03  0.34083557840E+03  0.00000000000E+00 0.  1.
         25    1    1    2    0    0  0.30687669182E+02  0.22353078287E+03  0.65014948829E+03  0.69944771145E+03  0.12500000000E+03 0.  0.
         21    1    1    2  502  501 -0.10960614116E+02 -0.18161182221E+03 -0.19122392584E+03  0.26394995519E+03  0.00000000000E+00 0.  1.
         21    1    1    2  503  502 -0.19727055066E+02 -0.41918960654E+02 -0.82543184770E+02  0.94655867837E+02  0.00000000000E+00 0.  1.
<mgrwt>
<rscale>  4 0.98884457E+03</rscale>
<asrwt>0</asrwt>
<pdfrwt beam="1">  1        2 0.11034122E+00 0.98884457E+03</pdfrwt>
<pdfrwt beam="2">  1       -2 0.52436243E-01 0.98884457E+03</pdfrwt>
<totfact> 0.13622805E+02</totfact>
</mgrwt>
</event>
<event>
 5    0  0.6041737E-002  0.5187719E+03  0.7546771E-02  0.1008992E+00
          1   -1    0    0  503    0  0.00000000000E+00  0.00000000000E+00  0.90328561887E+02  0.90328561887E+02  0.00000000000E+00 0. -1.
         -1   -1    0    0    0  501 -0.00000000000E+00 -0.00000000000E+00 -0.74484820236E+03  0.74484820236E+03  0.00000000000E+00 0.  1.
         25    1    1    2    0    0  0.14853697477E+02 -0.23859340131E+03 -0.36921672752E+03  0.45726735654E+03  0.12500000000E+03 0.  0.
         21    1    1    2  502  501 -0.28691863328E+02  0.44310160519E+02 -0.53885740132E+02  0.75433986611E+02  0.00000000000E+00 0. -1.
         21    1    1    2  503  502  0.13838165852E+02  0.19428324080E+03 -0.23141717282E+03  0.30247542109E+03  0.00000000000E+00 0. -1.
<mgrwt>
<rscale>  4 0.51877188E+03</rscale>
<asrwt>0</asrwt>
<pdfrwt beam="1">  1        1 0.13896702E-01 0.51877188E+03</pdfrwt>
<pdfrwt beam="2">  1       -1 0.11459203E+00 0.51877188E+03</pdfrwt>
<totfact> 0.30190093E+02</totfact>
</mgrwt>
</event>
<event>
 5    0  0.6041737E-002  0.5438855E+03  0.7546771E-02  0.1002919E+00
          2   -1    0    0  503    0  0.00000000000E+00  0.00000000000E+00  0.11665486776E+04  0.11665486776E+04  0.00000000000E+00 0. -1.
         -2   -1    0    0    0  501 -0.00000000000E+00 -0.00000000000E+00 -0.84125408301E+02  0.84125408301E+02  0.00000000000E+00 0.  1.
         25    1    1    2    0    0  0.24598664060E+03 -0.11469130270E+03  0.69785475773E+03  0.75913752717E+03  0.12500000000E+03 0.  0.
         21    1    1    2  502  501 -0.16872673729E+03  0.12254302455E+03  0.19025992757E+03  0.28228415610E+03  0.00000000000E+00 0.  1.
         21    1    1    2  503  502 -0.77259903302E+02 -0.78517218589E+01  0.19430858402E+03  0.20925240265E+03  0.00000000000E+00 0.  1.
<mgrwt>
<rscale>  4 0.54388549E+03</rscale>
<asrwt>0</asrwt>
<pdfrwt beam="1">  1        2 0.17946902E+00 0.54388549E+03</pdfrwt>
<pdfrwt beam="2">  1       -2 0.12942371E-01 0.54388549E+03</pdfrwt>
<totfact> 0.90285243E+02</totfact>
</mgrwt>
</event>
<event>
 5    0  0.6041737E-002  0.6034768E+03  0.7546771E-02  0.9898219E-01
         -1   -1    0    0    0  501 -0.00000000000E+00  0.00000000000E+00  0.92966598931E+02  0.92966598931E+02  0.00000000000E+00 0.  1.
          1   -1    0    0  503    0  0.00000000000E+00 -0.00000000000E+00 -0.97934175494E+03  0.97934175494E+03  0.00000000000E+00 0. -1.
         25    1    1    2    0    0  0.10410405855E+03 -0.25856536002E+03 -0.58472286468E+03  0.65971170134E+03  0.12500000000E+03 0.  0.
         21    1    1    2  502  501 -0.93217307362E+01  0.20807546761E+02 -0.11016910917E+02  0.25322341761E+02  0.00000000000E+00 0. -1.
         21    1    1    2  503  502 -0.94782327814E+02  0.23775781326E+03 -0.29063538041E+03  0.38727431076E+03  0.00000000000E+00 0.  1.
<mgrwt>
<rscale>  4 0.60347683E+03</rscale>
<asrwt>0</asrwt>
<pdfrwt beam="1">  1        1 0.15066795E+00 0.60347683E+03</pdfrwt>
<pdfrwt beam="2">  1       -1 0.14302554E-01 0.60347683E+03</pdfrwt>
<totfact> 0.56622945E+02</totfact>
</mgrwt>
</event>
<event>
 5    0  0.6041737E-002  0.5009143E+03  0.7546771E-02  0.1013541E+00
         -2   -1    0    0    0  501 -0.00000000000E+00  0.00000000000E+00  0.24958289920E+03  0.24958289920E+03  0.00000000000E+00 0.  1.
          2   -1    0    0  503    0  0.00000000000E+00 -0.00000000000E+00 -0.25133449885E+03  0.25133449885E+03  0.00000000000E+00 0. -1.
         25    1    1    2    0    0 -0.46494863751E+02 -0.21052293142E+03  0.76958092614E+02  0.26082412662E+03  0.12500000000E+03 0.  0.
         21    1    1    2  502  501  0.16254793804E+02  0.60131830855E+02 -0.58342603222E+02  0.85345853762E+02  0.00000000000E+00 0. -1.
         21    1    1    2  503  502  0.30240069946E+02  0.15039110057E+03 -0.20367089041E+02  0.15474741767E+03  0.00000000000E+00 0. -1.
<mgrwt>
<rscale>  4 0.50091434E+03</rscale>
<asrwt>0</asrwt>
<pdfrwt beam="1">  1        2 0.38666846E-01 0.50091434E+03</pdfrwt>
<pdfrwt beam="2">  1       -2 0.38397369E-01 0.50091434E+03</pdfrwt>
<totfact> 0.85966898E+02</totfact>
</mgrwt>
</event>
<event>
 5    0  0.6041737E-002  0.7381279E+03  0.7546771E-02  0.9654162E-01
          2   -1    0    0  503    0  0.00000000000E+00  0.00000000000E+00  0.31423379038E+03  0.31423379038E+03  0.00000000000E+00 0. -1.
         -2   -1    0    0    0  501 -0.00000000000E+00 -0.00000000000E+00 -0.43346133374E+03  0.43346133374E+03  0.00000000000E+00 0.  1.
         25    1    1    2    0    0 -0.35215685634E+03  0.16129468320E+02 -0.64387393095E+02  0.37953306524E+03  0.12500000000E+03 0.  0.
         21    1    1    2  502  501  0.35136796290E+02  0.25361919718E+02  0.22019542286E+01  0.43389745652E+02  0.00000000000E+00 0.  1.
         21    1    1    2  503  502  0.31702006005E+03 -0.41491388038E+02 -0.57042104497E+02  0.32477231323E+03  0.00000000000E+00 0. -1.
<mgrwt>
<rscale>  4 0.73812790E+03</rscale>
<asrwt>0</asrwt>
<pdfrwt beam="1">  1        2 0.48343660E-01 0.73812790E+03</pdfrwt>
<pdfrwt beam="2">  1       -2 0.66686359E-01 0.73812790E+03</pdfrwt>
<totfact> 0.21735599E+02</totfact>
</mgrwt>
</event>
<event>
 5    0  0.6041737E-002  0.5352451E+03  0.7546771E-02  0.1004968E+00
          2   -1    0    0  503    0  0.00000000000E+00  0.00000000000E+00  0.87856741348E+03  0.87856741348E+03  0.00000000000E+00 0. -1.
         -2   -1    0    0    0  501 -0.00000000000E+00 -0.00000000000E+00 -0.81521162176E+02  0.81521162176E+02  0.00000000000E+00 0.  1.
         25    1    1    2    0    0  0.22622678833E+03 -0.18432963911E+02  0.22784680735E+03  0.34504710046E+03  0.12500000000E+03 0.  0.
         21    1    1    2  502  501 -0.15211738582E+03 -0.11778361902E+02  0.39005347403E+03  0.41883187735E+03  0.00000000000E+00 0. -1.
         21    1    1    2  503  502 -0.74109402516E+02  0.30211325813E+02  0.17914596993E+03  0.19620959785E+03  0.00000000000E+00 0. -1.
<mgrwt>
<rscale>  4 0.53524513E+03</rscale>
<asrwt>0</asrwt>
<pdfrwt beam="1">  1        2 0.13516421E+00 0.53524513E+03</pdfrwt>
<pdfrwt beam="2">  1       -2 0.12541718E-01 0.53524513E+03</pdfrwt>
<totfact> 0.14417629E+03</totfact>
</mgrwt>
</event>
<event>
 5    0  0.6041737E-002  0.4642695E+03  0.7546771E-02  0.1023550E+00
          2   -1    0    0  503    0  0.00000000000E+00  0.00000000000E+00  0.22840027817E+04  0.22840027817E+04  0.00000000000E+00 0. -1.
         -2   -1    0    0    0  501 -0.00000000000E+00 -0.00000000000E+00 -0.32956873925E+02  0.32956873925E+02  0.00000000000E+00 0.  1.
         25    1    1    2    0    0 -0.78330405527E+02  0.21072943755E+03  0.15345407951E+04  0.15559508348E+04  0.12500000000E+03 0.  0.
         21    1    1    2  502  501 -0.10588917228E+02 -0.40190574355E+02  0.39955197861E+02  0.57652625882E+02  0.00000000000E+00 0.  1.
         21    1    1    2  503  502  0.88919322754E+02 -0.17053886319E+03  0.67654991472E+03  0.70335619492E+03  0.00000000000E+00 0.  1.
<mgrwt>
<rscale>  4 0.46426946E+03</rscale>
<asrwt>0</asrwt>
<pdfrwt beam="1">  1        2 0.35138492E+00 0.46426946E+03</pdfrwt>
<pdfrwt beam="2">  1       -2 0.50702901E-02 0.46426946E+03</pdfrwt>
<totfact> 0.98517967E+02</totfact>
</mgrwt>
</event>
<event>
 5    0  0.6041737E-002  0.4793468E+03  0.7546771E-02  0.1019315E+00
          2   -1    0    0  503    0  0.00000000000E+00  0.00000000000E+00  0.15815691998E+04  0.15815691998E+04  0.00000000000E+00 0. -1.
         -2   -1    0    0    0  501 -0.00000000000E+00 -0.00000000000E+00 -0.36320478593E+02  0.36320478593E+02  0.00000000000E+00 0.  1.
         25    1    1    2    0    0  0.20903214026E+03  0.35944209770E+02  0.88073680819E+03  0.91449917833E+03  0.12500000000E+03 0.  0.
         21    1    1    2  502  501 -0.81047908726E+02 -0.50391954960E+02  0.20423844144E+03  0.22543614083E+03  0.00000000000E+00 0.  1.
         21    1    1    2  503  502 -0.12798423153E+03  0.14447745190E+02  0.46027347160E+03  0.47795435925E+03  0.00000000000E+00 0.  1.
<mgrwt>
<rscale>  4 0.47934685E+03</rscale>
<asrwt>0</asrwt>
<pdfrwt beam="1">  1        2 0.24331829E+00 0.47934685E+03</pdfrwt>
<pdfrwt beam="2">  1       -2 0.55877671E-02 0.47934685E+03</pdfrwt>
<totfact> 0.20255224E+03</totfact>
</mgrwt>
</event>
<event>
 5    0  0.6041737E-002  0.5127277E+03  0.7546771E-02  0.1010509E+00
          1   -1    0    0  503    0  0.00000000000E+00  0.00000000000E+00  0.38595476479E+03  0.38595476479E+03  0.00000000000E+00 0.  1.
         -1   -1    0    0    0  501 -0.00000000000E+00 -0.00000000000E+00 -0.28622720153E+03  0.28622720153E+03  0.00000000000E+00 0. -1.
         25    1    1    2    0    0  0.29769667596E+03  0.22427002396E+02  0.28679485204E+01  0.32366573258E+03  0.12500000000E+03 0.  0.
         21    1    1    2  502  501 -0.16118782911E+03  0.99791442152E+01  0.12646915488E+03  0.20512324761E+03  0.00000000000E+00 0.  1.
         21    1    1    2  503  502 -0.13650884685E+03 -0.32406146611E+02 -0.29609540143E+02  0.14339298614E+03  0.00000000000E+00 0.  1.
<mgrwt>
<rscale>  4 0.51272770E+03</rscale>
<asrwt>0</asrwt>
<pdfrwt beam="1">  1        1 0.59377656E-01 0.51272770E+03</pdfrwt>
<pdfrwt beam="2">  1       -1 0.44034954E-01 0.51272770E+03</pdfrwt>
<totfact> 0.32718695E+02</totfact>
</mgrwt>
</event>
<event>
 5    0  0.6041737E-002  0.6173613E+03  0.7546771E-02  0.9870027E-01
          1   -1    0    0  503    0  0.00000000000E+00  0.00000000000E+00  0.26608501919E+04  0.26608501919E+04  0.00000000000E+00 0. -1.
         -1   -1    0    0    0  501 -0.00000000000E+00 -0.00000000000E+00 -0.52758370340E+02  0.52758370340E+02  0.00000000000E+00 0.  1.
         25    1    1    2    0    0  0.56891712867E+02  0.33226322581E+03  0.14541258023E+04  0.14979126700E+04  0.12500000000E+03 0.  0.
         21    1    1    2  502  501 -0.56666011113E+02 -0.10051708569E+03  0.66072575688E+03  0.67072591059E+03  0.00000000000E+00 0.  1.
         21    1    1    2  503  502 -0.22570175475E+00 -0.23174614012E+03  0.49324026241E+03  0.54496998162E+03  0.00000000000E+00 0.  1.
<mgrwt>
<rscale>  4 0.61736127E+03</rscale>
<asrwt>0</asrwt>
<pdfrwt beam="1">  1        1 0.40936146E+00 0.61736127E+03</pdfrwt>
<pdfrwt beam="2">  1       -1 0.81166744E-02 0.61736127E+03</pdfrwt>
<totfact> 0.97524027E+01</totfact>
</mgrwt>
</event>
<event>
 5    0  0.6041737E-002  0.4381785E+03  0.7546771E-02  0.1031307E+00
          2   -1    0    0  503    0  0.00000000000E+00  0.00000000000E+00  0.12945297861E+04  0.12945297861E+04  0.00000000000E+00 0.  1.
         -2   -1    0    0    0  501 -0.00000000000E+00 -0.00000000000E+00 -0.44236683063E+02  0.44236683063E+02  0.00000000000E+00 0. -1.
         25    1    1    2    0    0 -0.19717206187E+03  0.50737487183E+02  0.48057972326E+03  0.53668704568E+03  0.12500000000E+03 0.  0.
         21    1    1    2  502  501  0.30601163777E+02  0.84082788911E+00  0.33007386556E+02  0.45018060634E+02  0.00000000000E+00 0.  1.
         21    1    1    2  503  502  0.16657089809E+03 -0.51578315072E+02  0.73670599320E+03  0.75706136283E+03  0.00000000000E+00 0.  1.
<mgrwt>
<rscale>  4 0.43817854E+03</rscale>
<asrwt>0</asrwt>
<pdfrwt beam="1">  1        2 0.19915840E+00 0.43817854E+03</pdfrwt>
<pdfrwt beam="2">  1       -2 0.68056445E-02 0.43817854E+03</pdfrwt>
<totfact> 0.21478966E+03</totfact>
</mgrwt>
</event>
<event>
 5    0  0.6041737E-002  0.6185828E+03  0.7546771E-02  0.9867585E-01
          2   -1    0    0  503    0  0.00000000000E+00  0.00000000000E+00  0.28309216085E+04  0.28309216085E+04  0.00000000000E+00 0. -1.
         -2   -1    0    0    0  501 -0.00000000000E+00 -0.00000000000E+00 -0.33791524627E+02  0.33791524627E+02  0.00000000000E+00 0.  1.
         25    1    1    2    0    0  0.87699677882E+02 -0.22690836549E+03  0.22290747542E+04  0.22457911522E+04  0.12500000000E+03 0.  0.
         21    1    1    2  502  501 -0.65265666268E+01  0.22716899473E+02  0.33804121639E+02  0.41247693673E+02  0.00000000000E+00 0.  1.
         21    1    1    2  503  502 -0.81173111255E+02  0.20419146602E+03  0.53425120812E+03  0.57767428726E+03  0.00000000000E+00 0.  1.
<mgrwt>
<rscale>  4 0.61858276E+03</rscale>
<asrwt>0</asrwt>
<pdfrwt beam="1">  1        2 0.43552622E+00 0.61858276E+03</pdfrwt>
<pdfrwt beam="2">  1       -2 0.51986983E-02 0.61858276E+03</pdfrwt>
<totfact> 0.45745815E+02</totfact>
</mgrwt>
</event>
<event>
 5    0  0.6041737E-002  0.4741673E+03  0.7546771E-02  0.1020751E+00
         -1   -1    0    0    0  501 -0.00000000000E+00  0.00000000000E+00  0.42621640146E+03  0.42621640146E+03  0.00000000000E+00 0.  1.
          1   -1    0    0  503    0  0.00000000000E+00 -0.00000000000E+00 -0.43437507239E+03  0.43437507239E+03  0.00000000000E+00 0. -1.
         25    1    1    2    0    0  0.28680041659E+02  0.21371154853E+03 -0.32895207693E+03  0.41271011580E+03  0.12500000000E+03 0.  0.
         21    1    1    2  502  501 -0.19711639010E+02 -0.68963500298E+02  0.29115321245E+03  0.29985780998E+03  0.00000000000E+00 0.  1.
         21    1    1    2  503  502 -0.89684026491E+01 -0.14474804823E+03  0.29640193556E+02  0.14802354808E+03  0.00000000000E+00 0.  1.
<mgrwt>
<rscale>  4 0.47416731E+03</rscale>
<asrwt>0</asrwt>
<pdfrwt beam="1">  1        1 0.66826935E-01 0.47416731E+03</pdfrwt>
<pdfrwt beam="2">  1       -1 0.65571754E-01 0.47416731E+03</pdfrwt>
<totfact> 0.13125897E+02</totfact>
</mgrwt>
</event>
<event>
 5    0  0.6041737E-002  0.7445881E+03  0.7546771E-02  0.9643879E-01
         -1   -1    0    0    0  501 -0.00000000000E+00  0.00000000000E+00  0.28361197857E+03  0.28361197857E+03  0.00000000000E+00 0. -1.
          1   -1    0    0  503    0  0.00000000000E+00 -0.00000000000E+00 -0.48870595481E+03  0.48870595481E+03  0.00000000000E+00 0.  1.
         25    1    1    2    0    0 -0.28584554052E+03 -0.20848438701E+03 -0.54265284626E+02  0.37913471719E+03  0.12500000000E+03 0.  0.
         21    1    1    2  502  501  0.26904622708E+03  0.16710904980E+03 -0.14433675445E+03  0.34805804906E+03  0.00000000000E+00 0. -1.
         21    1    1    2  503  502  0.16799313447E+02  0.41375337202E+02 -0.64919371556E+01  0.45125167134E+02  0.00000000000E+00 0. -1.
<mgrwt>
<rscale>  4 0.74458811E+03</rscale>
<asrwt>0</asrwt>
<pdfrwt beam="1">  1        1 0.75185530E-01 0.74458811E+03</pdfrwt>
<pdfrwt beam="2">  1       -1 0.43632613E-01 0.74458811E+03</pdfrwt>
<totfact> 0.24024011E+02</totfact>
</mgrwt>
</event>
<event>
 5    0  0.6041737E-002  0.4484954E+03  0.7546771E-02  0.1028172E+00
          2   -1    0    0  503    0  0.00000000000E+00  0.00000000000E+00  0.23333054584E+03  0.23333054584E+03  0.00000000000E+00 0. -1.
         -2   -1    0    0    0  501 -0.00000000000E+00 -0.00000000000E+00 -0.29692294066E+03  0.29692294066E+03  0.00000000000E+00 0.  1.
         25    1    1    2    0    0  0.81196621136E+02  0.21795859190E+03 -0.66411680150E+02  0.27227623901E+03  0.12500000000E+03 0.  0.
         21    1    1    2  502  501 -0.70555897547E+02 -0.17041026984E+03 -0.44848534110E+02  0.18981355525E+03  0.00000000000E+00 0.  1.
         21    1    1    2  503  502 -0.10640723589E+02 -0.47548322065E+02  0.47667819443E+02  0.68163692242E+02  0.00000000000E+00 0.  1.
<mgrwt>
<rscale>  4 0.44849542E+03</rscale>
<asrwt>0</asrwt>
<pdfrwt beam="1">  1        2 0.35897007E-01 0.44849542E+03</pdfrwt>
<pdfrwt beam="2">  1       -2 0.45680452E-01 0.44849542E+03</pdfrwt>
<totfact> 0.66461915E+02</totfact>
</mgrwt>
</event>
<event>
 5    0  0.6041737E-002  0.4624212E+03  0.7546771E-02  0.1024081E+00
         -2   -1    0    0    0  501 -0.00000000000E+00  0.00000000000E+00  0.56871602352E+02  0.56871602352E+02  0.00000000000E+00 0. -1.
          2   -1    0    0  503    0  0.00000000000E+00 -0.00000000000E+00 -0.93998320328E+03  0.93998320328E+03  0.00000000000E+00 0.  1.
         25    1    1    2    0    0 -0.19287477005E+03  0.71575292270E+02 -0.36527872818E+03  0.43746685434E+03  0.12500000000E+03 0.  0.
         21    1    1    2  502  501  0.17824198458E+03 -0.50604895637E+02 -0.46880192560E+03  0.50408958130E+03  0.00000000000E+00 0. -1.
         21    1    1    2  503  502  0.14632785467E+02 -0.20970396633E+02 -0.49030947151E+02  0.55298369994E+02  0.00000000000E+00 0. -1.
<mgrwt>
<rscale>  4 0.46242124E+03</rscale>
<asrwt>0</asrwt>
<pdfrwt beam="1">  1        2 0.14461278E+00 0.46242124E+03</pdfrwt>
<pdfrwt beam="2">  1       -2 0.87494783E-02 0.46242124E+03</pdfrwt>
<totfact> 0.23560325E+03</totfact>
</mgrwt>
</event>
<event>
 5    0  0.6041737E-002  0.5134834E+03  0.7546771E-02  0.1010318E+00
          2   -1    0    0  503    0  0.00000000000E+00  0.00000000000E+00  0.17943685397E+04  0.17943685397E+04  0.00000000000E+00 0.  1.
         -2   -1    0    0    0  501 -0.00000000000E+00 -0.00000000000E+00 -0.36735098233E+02  0.36735098233E+02  0.00000000000E+00 0. -1.
         25    1    1    2    0    0 -0.21424899715E+03  0.94253414616E+02  0.77028993715E+03  0.81471340127E+03  0.12500000000E+03 0.  0.
         21    1    1    2  502  501  0.54563911784E+02 -0.45033793910E+01  0.16333289862E+03  0.17226472845E+03  0.00000000000E+00 0. -1.
         21    1    1    2  503  502  0.15968508536E+03 -0.89750035225E+02  0.82401060574E+03  0.84412550825E+03  0.00000000000E+00 0.  1.
<mgrwt>
<rscale>  4 0.51348342E+03</rscale>
<asrwt>0</asrwt>
<pdfrwt beam="1">  1        2 0.27605663E+00 0.51348342E+03</pdfrwt>
<pdfrwt beam="2">  1       -2 0.56515550E-02 0.51348342E+03</pdfrwt>
<totfact> 0.15252639E+03</totfact>
</mgrwt>
</event>
<event>
 5    0  0.6041737E-002  0.7098117E+03  0.7546771E-02  0.9700599E-01
         -1   -1    0    0    0  501 -0.00000000000E+00  0.00000000000E+00  0.17177815438E+03  0.17177815438E+03  0.00000000000E+00 0. -1.
          1   -1    0    0  503    0  0.00000000000E+00 -0.00000000000E+00 -0.84000249389E+03  0.84000249389E+03  0.00000000000E+00 0.  1.
         25    1    1    2    0    0  0.43825440713E+02  0.33741949349E+03 -0.33989736881E+03  0.49691830834E+03  0.12500000000E+03 0.  0.
         21    1    1    2  502  501 -0.88842970803E+02 -0.33569613226E+03 -0.31235005721E+03  0.46706265630E+03  0.00000000000E+00 0.  1.
         21    1    1    2  503  502  0.45017530089E+02 -0.17233612360E+01 -0.15976913490E+02  0.47799683618E+02  0.00000000000E+00 0.  1.
<mgrwt>
<rscale>  4 0.70981166E+03</rscale>
<asrwt>0</asrwt>
<pdfrwt beam="1">  1        1 0.12923115E+00 0.70981166E+03</pdfrwt>
<pdfrwt beam="2">  1       -1 0.26427408E-01 0.70981166E+03</pdfrwt>
<totfact> 0.26336794E+02</totfact>
</mgrwt>
</event>
<event>
 5    0  0.6041737E-002  0.4786379E+03  0.7546771E-02  0.1019510E+00
          2   -1    0    0  503    0  0.00000000000E+00  0.00000000000E+00  0.25059475327E+04  0.25059475327E+04  0.00000000000E+00 0. -1.
         -2   -1    0    0    0  501 -0.00000000000E+00 -0.00000000000E+00 -0.22855048350E+02  0.22855048350E+02  0.00000000000E+00 0.  1.
         25    1    1    2    0    0  0.10251877173E+03  0.19042938541E+03  0.13694854006E+04  0.13920807131E+04  0.12500000000E+03 0.  0.
         21    1    1    2  502  501  0.97390917731E+01 -0.33105600149E+02  0.19039600712E+03  0.19349798499E+03  0.00000000000E+00 0. -1.
         21    1    1    2  503  502 -0.11225786350E+03 -0.15732378527E+03  0.92321107668E+03  0.94322388298E+03  0.00000000000E+00 0. -1.
<mgrwt>
<rscale>  4 0.47863787E+03</rscale>
<asrwt>0</asrwt>
<pdfrwt beam="1">  1        2 0.38553017E+00 0.47863787E+03</pdfrwt>
<pdfrwt beam="2">  1       -2 0.35161633E-02 0.47863787E+03</pdfrwt>
<totfact> 0.12999817E+03</totfact>
</mgrwt>
</event>
<event>
 5    0  0.6041737E-002  0.5020215E+03  0.7546771E-02  0.1013253E+00
         -2   -1    0    0    0  501 -0.00000000000E+00  0.00000000000E+00  0.10540905618E+03  0.10540905618E+03  0.00000000000E+00 0. -1.
          2   -1    0    0  503    0  0.00000000000E+00 -0.00000000000E+00 -0.59773227120E+03  0.59773227120E+03  0.00000000000E+00 0.  1.
         25    1    1    2    0    0 -0.15104584340E+03 -0.14645502787E+03 -0.39691930720E+03  0.46629803605E+03  0.12500000000E+03 0.  0.
         21    1    1    2  502  501  0.13289058278E+03  0.11961700318E+03 -0.98775439210E+02  0.20426630126E+03  0.00000000000E+00 0. -1.
         21    1    1    2  503  502  0.18155260623E+02  0.26838024697E+02  0.33715313839E+01  0.32576990066E+02  0.00000000000E+00 0. -1.
<mgrwt>
<rscale>  4 0.50202149E+03</rscale>
<asrwt>0</asrwt>
<pdfrwt beam="1">  1        2 0.91958813E-01 0.50202149E+03</pdfrwt>
<pdfrwt beam="2">  1       -2 0.16216778E-01 0.50202149E+03</pdfrwt>
<totfact> 0.15286209E+03</totfact>
</mgrwt>
</event>
<event>
 5    0  0.6041737E-002  0.5958006E+03  0.7546771E-02  0.9914157E-01
         -2   -1    0    0    0  501 -0.00000000000E+00  0.00000000000E+00  0.49554640844E+02  0.49554640844E+02  0.00000000000E+00 0. -1.
          2   -1    0    0  503    0  0.00000000000E+00 -0.00000000000E+00 -0.17908433461E+04  0.17908433461E+04  0.00000000000E+00 0.  1.
         25    1    1    2    0    0  0.22815403652E+03 -0.32505211905E+02 -0.39520516435E+03  0.47426045071E+03  0.12500000000E+03 0.  0.
         21    1    1    2  502  501 -0.32421921714E+02 -0.47382298972E+01 -0.14646447867E+03  0.15008489378E+03  0.00000000000E+00 0.  1.
         21    1    1    2  503  502 -0.19573211480E+03  0.37243441802E+02 -0.11996190622E+04  0.12160526424E+04  0.00000000000E+00 0.  1.
<mgrwt>
<rscale>  4 0.59580063E+03</rscale>
<asrwt>0</asrwt>
<pdfrwt beam="1">  1        2 0.27551432E+00 0.59580063E+03</pdfrwt>
<pdfrwt beam="2">  1       -2 0.76237921E-02 0.59580063E+03</pdfrwt>
<totfact> 0.95269140E+02</totfact>
</mgrwt>
</event>
<event>
 5    0  0.6041737E-002  0.7691718E+03  0.7546771E-02  0.9605744E-01
          2   -1    0    0  503    0  0.00000000000E+00  0.00000000000E+00  0.18677289529E+04  0.18677289529E+04  0.00000000000E+00 0. -1.
         -2   -1    0    0    0  501 -0.00000000000E+00 -0.00000000000E+00 -0.87764512134E+02  0.87764512134E+02  0.00000000000E+00 0.  1.
         25    1    1    2    0    0 -0.28000994047E+01 -0.35274619802E+03  0.51277786850E+03  0.63482585266E+03  0.12500000000E+03 0.  0.
         21    1    1    2  502  501 -0.11353314021E+02  0.34422037906E+02  0.45831735551E+02  0.58432203591E+02  0.00000000000E+00 0.  1.
         21    1    1    2  503  502  0.14153413425E+02  0.31832416012E+03  0.12213548367E+04  0.12622354088E+04  0.00000000000E+00 0.  1.
<mgrwt>
<rscale>  4 0.76917176E+03</rscale>
<asrwt>0</asrwt>
<pdfrwt beam="1">  1        2 0.28734289E+00 0.76917176E+03</pdfrwt>
<pdfrwt beam="2">  1       -2 0.13502234E-01 0.76917176E+03</pdfrwt>
<totfact> 0.33722304E+02</totfact>
</mgrwt>
</event>
<event>
 5    0  0.6041737E-002  0.5672881E+03  0.7546771E-02  0.9975698E-01
         -2   -1    0    0    0  501 -0.00000000000E+00  0.00000000000E+00  0.47312940444E+02  0.47312940444E+02  0.00000000000E+00 0. -1.
          2   -1    0    0  503    0  0.00000000000E+00 -0.00000000000E+00 -0.35563695750E+04  0.35563695750E+04  0.00000000000E+00 0.  1.
         25    1    1    2    0    0 -0.24007661071E+03  0.13629153221E+03 -0.67444682279E+03  0.73940224340E+03  0.12500000000E+03 0.  0.
         21    1    1    2  502  501  0.22833541179E+03  0.99673206823E+01 -0.11009977307E+04  0.11244698354E+04  0.00000000000E+00 0.  1.
         21    1    1    2  503  502  0.11741198921E+02 -0.14625885290E+03 -0.17336120810E+04  0.17398104366E+04  0.00000000000E+00 0.  1.
<mgrwt>
<rscale>  4 0.56728808E+03</rscale>
<asrwt>0</asrwt>
<pdfrwt beam="1">  1        2 0.54713380E+00 0.56728808E+03</pdfrwt>
<pdfrwt beam="2">  1       -2 0.72789136E-02 0.56728808E+03</pdfrwt>
<totfact> 0.94297162E+01</totfact>
</mgrwt>
</event>
