<event>
 5    0  0.1911311E+001  0.2619098E+03  0.7546771E-02  0.1106001E+00
         21   -1    0    0  502  501  0.00000000000E+00  0.00000000000E+00  0.52584212419E+03  0.52584212419E+03  0.00000000000E+00 0. -1.
         21   -1    0    0  504  502 -0.00000000000E+00 -0.00000000000E+00 -0.87392858284E+03  0.87392858284E+03  0.00000000000E+00 0.  1.
         25    1    1    2    0    0  0.26467833993E+03  0.86661808117E+02  0.43320518039E+03  0.52995907477E+03  0.12500000000E+03 0.  0.
         21    1    1    2  503  501 -0.50005735426E+02 -0.82994855329E+01  0.50450474693E+01  0.50940234977E+02  0.00000000000E+00 0. -1.
         21    1    1    2  504  503 -0.21467260450E+03 -0.78362322584E+02 -0.78633668651E+03  0.81887139728E+03  0.00000000000E+00 0.  1.
<mgrwt>
<rscale>  4 0.26190982E+03</rscale>
<asrwt>0</asrwt>
<pdfrwt beam="1">  1       21 0.80898788E-01 0.26190982E+03</pdfrwt>
<pdfrwt beam="2">  1       21 0.13445055E+00 0.26190982E+03</pdfrwt>
<totfact> 0.49757318E+02</totfact>
</mgrwt>
</event>
<event>
 5    0  0.1911311E+001  0.2754137E+03  0.7546771E-02  0.1098221E+00
         21   -1    0    0  502  501  0.00000000000E+00  0.00000000000E+00  0.19118439560E+03  0.19118439560E+03  0.00000000000E+00 0.  1.
         21   -1    0    0  504  502 -0.00000000000E+00 -0.00000000000E+00 -0.57819307458E+03  0.57819307458E+03  0.00000000000E+00 0.  1.
         25    1    1    2    0    0  0.18430808493E+03  0.14398616803E+03 -0.35476061658E+03  0.44292390072E+03  0.12500000000E+03 0.  0.
         21    1    1    2  503  501 -0.20736408734E+03 -0.13720524155E+03  0.38614075461E+02  0.25162708489E+03  0.00000000000E+00 0.  1.
         21    1    1    2  504  503  0.23056002404E+02 -0.67809264760E+01 -0.70862137861E+02  0.74826484569E+02  0.00000000000E+00 0.  1.
<mgrwt>
<rscale>  4 0.27541369E+03</rscale>
<asrwt>0</asrwt>
<pdfrwt beam="1">  1       21 0.29412984E-01 0.27541369E+03</pdfrwt>
<pdfrwt beam="2">  1       21 0.88952780E-01 0.27541369E+03</pdfrwt>
<totfact> 0.11387706E+04</totfact>
</mgrwt>
</event>
<event>
 5    0  0.1911311E+001  0.3731984E+03  0.7546771E-02  0.1053477E+00
         21   -1    0    0  504  501  0.00000000000E+00  0.00000000000E+00  0.14691487567E+04  0.14691487567E+04  0.00000000000E+00 0.  1.
         21   -1    0    0  503  502 -0.00000000000E+00 -0.00000000000E+00 -0.12927215608E+03  0.12927215608E+03  0.00000000000E+00 0.  1.
         25    1    1    2    0    0  0.95395748903E+02  0.37624558691E+03  0.46147781738E+03  0.61583103731E+03  0.12500000000E+03 0.  0.
         21    1    1    2  503  501 -0.11966354420E+03 -0.29394325734E+03  0.48263990441E+03  0.57763594043E+03  0.00000000000E+00 0.  1.
         21    1    1    2  504  502  0.24267795292E+02 -0.82302329564E+02  0.39575887882E+03  0.40495393504E+03  0.00000000000E+00 0. -1.
<mgrwt>
<rscale>  4 0.37319840E+03</rscale>
<asrwt>0</asrwt>
<pdfrwt beam="1">  1       21 0.22602287E+00 0.37319840E+03</pdfrwt>
<pdfrwt beam="2">  1       21 0.19888025E-01 0.37319840E+03</pdfrwt>
<totfact> 0.18756481E+03</totfact>
</mgrwt>
</event>
