<event>
 5    0  0.3188794E-002  0.6803381E+03  0.7546771E-02  0.9751460E-01
         21   -1    0    0  501  502  0.00000000000E+00  0.00000000000E+00  0.31143191070E+04  0.31143191070E+04  0.00000000000E+00 0.  1.
          2   -1    0    0  503    0 -0.00000000000E+00 -0.00000000000E+00 -0.91459586858E+02  0.91459586858E+02  0.00000000000E+00 0. -1.
         25    1    1    2    0    0  0.32951895738E+03 -0.10584050749E+03  0.11700453574E+04  0.12265464095E+04  0.12500000000E+03 0.  0.
         21    1    1    2  503  502 -0.17351482390E+03 -0.22594974751E+03  0.47881199641E+03  0.55715492497E+03  0.00000000000E+00 0. -1.
          2    1    1    2  501    0 -0.15600413348E+03  0.33179025501E+03  0.13740021664E+04  0.14220773594E+04  0.00000000000E+00 0. -1.
<mgrwt>
<rscale>  4 0.68033806E+03</rscale>
<asrwt>0</asrwt>
<pdfrwt beam="1">  1       21 0.47912594E+00 0.68033806E+03</pdfrwt>
<pdfrwt beam="2">  1        2 0.14070708E-01 0.68033806E+03</pdfrwt>
<totfact> 0.93878053E+00</totfact>
</mgrwt>
</event>
<event>
 5    0  0.3188794E-002  0.4911429E+03  0.7546771E-02  0.1016117E+00
         21   -1    0    0  501  502  0.00000000000E+00  0.00000000000E+00  0.58166056523E+02  0.58166056523E+02  0.00000000000E+00 0.  1.
          2   -1    0    0  503    0 -0.00000000000E+00 -0.00000000000E+00 -0.16301458045E+04  0.16301458045E+04  0.00000000000E+00 0. -1.
         25    1    1    2    0    0  0.25187281267E+03 -0.69221728837E+02 -0.92204717512E+03  0.96645100996E+03  0.12500000000E+03 0.  0.
         21    1    1    2  503  502 -0.20084276946E+03  0.13113520574E+02 -0.59525908694E+03  0.62836546934E+03  0.00000000000E+00 0. -1.
          2    1    1    2  501    0 -0.51030043202E+02  0.56108208263E+02 -0.54673485932E+02  0.93495381745E+02  0.00000000000E+00 0. -1.
<mgrwt>
<rscale>  4 0.49114286E+03</rscale>
<asrwt>0</asrwt>
<pdfrwt beam="1">  1       21 0.89486231E-02 0.49114286E+03</pdfrwt>
<pdfrwt beam="2">  1        2 0.25079169E+00 0.49114286E+03</pdfrwt>
<totfact> 0.13852790E+04</totfact>
</mgrwt>
</event>
<event>
 5    0  0.3188794E-002  0.6454454E+03  0.7546771E-02  0.9815363E-01
         21   -1    0    0  501  502  0.00000000000E+00  0.00000000000E+00  0.11098350968E+03  0.11098350968E+03  0.00000000000E+00 0.  1.
          1   -1    0    0  503    0 -0.00000000000E+00 -0.00000000000E+00 -0.11352219951E+04  0.11352219951E+04  0.00000000000E+00 0. -1.
         25    1    1    2    0    0 -0.97352588179E+02 -0.20655570437E+03 -0.91236837477E+03  0.94878018356E+03  0.12500000000E+03 0.  0.
         21    1    1    2  503  502  0.68080467420E+02  0.22676272649E+03 -0.11185816323E+03  0.26185593912E+03  0.00000000000E+00 0.  1.
          1    1    1    2  501    0  0.29272120759E+02 -0.20207022128E+02 -0.11947372860E-01  0.35569382054E+02  0.00000000000E+00 0. -1.
<mgrwt>
<rscale>  4 0.64544544E+03</rscale>
<asrwt>0</asrwt>
<pdfrwt beam="1">  1       21 0.17074385E-01 0.64544544E+03</pdfrwt>
<pdfrwt beam="2">  1        1 0.17464955E+00 0.64544544E+03</pdfrwt>
<totfact> 0.40213928E+03</totfact>
</mgrwt>
</event>
<event>
 5    0  0.3188794E-002  0.8859795E+03  0.7546771E-02  0.9443279E-01
          2   -1    0    0  503    0 -0.00000000000E+00  0.00000000000E+00  0.18631470981E+04  0.18631470981E+04  0.00000000000E+00 0. -1.
         21   -1    0    0  501  502  0.00000000000E+00 -0.00000000000E+00 -0.49882746133E+03  0.49882746133E+03  0.00000000000E+00 0. -1.
         25    1    1    2    0    0 -0.16143807928E+02 -0.44325559329E+03  0.10290678249E+04  0.11275379070E+04  0.12500000000E+03 0.  0.
         21    1    1    2  503  502  0.15519399282E+02  0.41932828511E+03  0.72836758134E+03  0.84059288362E+03  0.00000000000E+00 0.  1.
          2    1    1    2  501    0  0.62440864529E+00  0.23927308182E+02 -0.39311576950E+03  0.39384376876E+03  0.00000000000E+00 0. -1.
<mgrwt>
<rscale>  4 0.88597946E+03</rscale>
<asrwt>0</asrwt>
<pdfrwt beam="1">  1       21 0.76742687E-01 0.88597946E+03</pdfrwt>
<pdfrwt beam="2">  1        2 0.28663801E+00 0.88597946E+03</pdfrwt>
<totfact> 0.13156650E+02</totfact>
</mgrwt>
</event>
<event>
 5    0  0.3188794E-002  0.4752676E+03  0.7546771E-02  0.1020444E+00
         -2   -1    0    0    0  501 -0.00000000000E+00  0.00000000000E+00  0.80068861968E+03  0.80068861968E+03  0.00000000000E+00 0.  1.
         21   -1    0    0  503  502  0.00000000000E+00 -0.00000000000E+00 -0.14527836217E+03  0.14527836217E+03  0.00000000000E+00 0.  1.
         25    1    1    2    0    0 -0.20618972414E+03  0.95913775414E+02  0.36585411151E+03  0.44853972573E+03  0.12500000000E+03 0.  0.
         21    1    1    2  503  501  0.20021142209E+03 -0.76675285366E+02  0.36282844935E+03  0.42143587481E+03  0.00000000000E+00 0. -1.
         -2    1    1    2    0  502  0.59783020475E+01 -0.19238490048E+02 -0.73272303343E+02  0.75991381300E+02  0.00000000000E+00 0.  1.
<mgrwt>
<rscale>  4 0.47526758E+03</rscale>
<asrwt>0</asrwt>
<pdfrwt beam="1">  1       21 0.22350518E-01 0.47526758E+03</pdfrwt>
<pdfrwt beam="2">  1       -2 0.12318286E+00 0.47526758E+03</pdfrwt>
<totfact> 0.75739918E+02</totfact>
</mgrwt>
</event>
<event>
 5    0  0.3188794E-002  0.5009233E+03  0.7546771E-02  0.1013538E+00
          1   -1    0    0  503    0 -0.00000000000E+00  0.00000000000E+00  0.56168390921E+03  0.56168390921E+03  0.00000000000E+00 0.  1.
         21   -1    0    0  501  502  0.00000000000E+00 -0.00000000000E+00 -0.25952348000E+03  0.25952348000E+03  0.00000000000E+00 0.  1.
         25    1    1    2    0    0 -0.17048698945E+03  0.21629434875E+03  0.32564478595E+03  0.44443063068E+03  0.12500000000E+03 0.  0.
         21    1    1    2  503  502 -0.20526516021E+02 -0.16717640412E+03  0.32970111939E+02  0.17162842490E+03  0.00000000000E+00 0.  1.
          1    1    1    2  501    0  0.19101350547E+03 -0.49117944636E+02 -0.56454468677E+02  0.20514833363E+03  0.00000000000E+00 0.  1.
<mgrwt>
<rscale>  4 0.50092326E+03</rscale>
<asrwt>0</asrwt>
<pdfrwt beam="1">  1       21 0.39926689E-01 0.50092326E+03</pdfrwt>
<pdfrwt beam="2">  1        1 0.86412909E-01 0.50092326E+03</pdfrwt>
<totfact> 0.23875576E+03</totfact>
</mgrwt>
</event>
<event>
 5    0  0.3188794E-002  0.5210765E+03  0.7546771E-02  0.1008419E+00
         21   -1    0    0  501  502  0.00000000000E+00  0.00000000000E+00  0.26777868611E+02  0.26777868611E+02  0.00000000000E+00 0.  1.
          2   -1    0    0  503    0 -0.00000000000E+00 -0.00000000000E+00 -0.38086632251E+04  0.38086632251E+04  0.00000000000E+00 0. -1.
         25    1    1    2    0    0 -0.20620990953E+03 -0.60282367796E+01 -0.11970308216E+04  0.12210924020E+04  0.12500000000E+03 0.  0.
         21    1    1    2  503  502  0.24755329765E+03 -0.54964954932E+02 -0.24262246017E+04  0.24394404275E+04  0.00000000000E+00 0.  1.
          2    1    1    2  501    0 -0.41343388115E+02  0.60993191712E+02 -0.15862993323E+03  0.17490826422E+03  0.00000000000E+00 0. -1.
<mgrwt>
<rscale>  4 0.52107651E+03</rscale>
<asrwt>0</asrwt>
<pdfrwt beam="1">  1       21 0.41196718E-02 0.52107651E+03</pdfrwt>
<pdfrwt beam="2">  1        2 0.58594823E+00 0.52107651E+03</pdfrwt>
<totfact> 0.26855452E+03</totfact>
</mgrwt>
</event>
<event>
 5    0  0.3188794E-002  0.4709837E+03  0.7546771E-02  0.1021643E+00
         21   -1    0    0  501  502  0.00000000000E+00  0.00000000000E+00  0.26809014633E+03  0.26809014633E+03  0.00000000000E+00 0. -1.
          2   -1    0    0  503    0 -0.00000000000E+00 -0.00000000000E+00 -0.52655613300E+03  0.52655613300E+03  0.00000000000E+00 0.  1.
         25    1    1    2    0    0 -0.96273365275E+02 -0.24411677432E+03 -0.27464646534E+02  0.29196038631E+03  0.12500000000E+03 0.  0.
         21    1    1    2  503  502  0.61269467604E+02 -0.40635337048E+01 -0.24410240216E+03  0.25170705732E+03  0.00000000000E+00 0.  1.
          2    1    1    2  501    0  0.35003897670E+02  0.24818030802E+03  0.13101062015E+02  0.25097883570E+03  0.00000000000E+00 0.  1.
<mgrwt>
<rscale>  4 0.47098368E+03</rscale>
<asrwt>0</asrwt>
<pdfrwt beam="1">  1       21 0.41244638E-01 0.47098368E+03</pdfrwt>
<pdfrwt beam="2">  1        2 0.81008635E-01 0.47098368E+03</pdfrwt>
<totfact> 0.39031378E+03</totfact>
</mgrwt>
</event>
<event>
 5    0  0.3188794E-002  0.9104047E+03  0.7546771E-02  0.9412668E-01
          1   -1    0    0  503    0 -0.00000000000E+00  0.00000000000E+00  0.21814714010E+04  0.21814714010E+04  0.00000000000E+00 0. -1.
         21   -1    0    0  501  502  0.00000000000E+00 -0.00000000000E+00 -0.58384467664E+03  0.58384467664E+03  0.00000000000E+00 0. -1.
         25    1    1    2    0    0  0.29912854355E+03  0.32237506404E+03  0.94574838341E+03  0.10504611236E+04  0.12500000000E+03 0.  0.
         21    1    1    2  503  502 -0.35328512133E+03 -0.27760537080E+03  0.11381015031E+04  0.12235808719E+04  0.00000000000E+00 0. -1.
          1    1    1    2  501    0  0.54156577783E+02 -0.44769693248E+02 -0.48622316213E+03  0.49127408210E+03  0.00000000000E+00 0. -1.
<mgrwt>
<rscale>  4 0.91040466E+03</rscale>
<asrwt>0</asrwt>
<pdfrwt beam="1">  1       21 0.89822259E-01 0.91040466E+03</pdfrwt>
<pdfrwt beam="2">  1        1 0.33561098E+00 0.91040466E+03</pdfrwt>
<totfact> 0.22582637E+01</totfact>
</mgrwt>
</event>
<event>
 5    0  0.3188794E-002  0.5910959E+03  0.7546771E-02  0.9924053E-01
         -3   -1    0    0    0  501 -0.00000000000E+00  0.00000000000E+00  0.86771958391E+03  0.86771958391E+03  0.00000000000E+00 0. -1.
         21   -1    0    0  503  502  0.00000000000E+00 -0.00000000000E+00 -0.11021189602E+03  0.11021189602E+03  0.00000000000E+00 0.  1.
         25    1    1    2    0    0 -0.22543920573E+03  0.74743087934E+02  0.13134651730E+03  0.29880808604E+03  0.12500000000E+03 0.  0.
         21    1    1    2  503  501  0.20383383032E+03 -0.83861226887E+02  0.61470075809E+03  0.65302217249E+03  0.00000000000E+00 0.  1.
         -3    1    1    2    0  502  0.21605375414E+02  0.91181389528E+01  0.11460412497E+02  0.26101221415E+02  0.00000000000E+00 0. -1.
<mgrwt>
<rscale>  4 0.59109585E+03</rscale>
<asrwt>0</asrwt>
<pdfrwt beam="1">  1       21 0.16955677E-01 0.59109585E+03</pdfrwt>
<pdfrwt beam="2">  1       -3 0.13349532E+00 0.59109585E+03</pdfrwt>
<totfact> 0.68334663E+02</totfact>
</mgrwt>
</event>
<event>
 5    0  0.3188794E-002  0.5050737E+03  0.7546771E-02  0.1012463E+00
          1   -1    0    0  503    0 -0.00000000000E+00  0.00000000000E+00  0.10658995690E+04  0.10658995690E+04  0.00000000000E+00 0.  1.
         21   -1    0    0  501  502  0.00000000000E+00 -0.00000000000E+00 -0.17030914341E+03  0.17030914341E+03  0.00000000000E+00 0.  1.
         25    1    1    2    0    0 -0.18791442460E+03  0.95482172325E+02  0.68889207426E+03  0.73118121296E+03  0.12500000000E+03 0.  0.
         21    1    1    2  503  502  0.21795023747E+03 -0.86013917774E+02  0.31480222130E+03  0.39242978812E+03  0.00000000000E+00 0. -1.
          1    1    1    2  501    0 -0.30035812869E+02 -0.94682545507E+01 -0.10810386997E+03  0.11259771135E+03  0.00000000000E+00 0.  1.
<mgrwt>
<rscale>  4 0.50507370E+03</rscale>
<asrwt>0</asrwt>
<pdfrwt beam="1">  1       21 0.26201407E-01 0.50507370E+03</pdfrwt>
<pdfrwt beam="2">  1        1 0.16398455E+00 0.50507370E+03</pdfrwt>
<totfact> 0.20296637E+03</totfact>
</mgrwt>
</event>
<event>
 5    0  0.3188794E-002  0.3274073E+03  0.7546771E-02  0.1072290E+00
          2   -1    0    0  503    0 -0.00000000000E+00  0.00000000000E+00  0.40171475747E+03  0.40171475747E+03  0.00000000000E+00 0.  1.
         21   -1    0    0  501  502  0.00000000000E+00 -0.00000000000E+00 -0.13892612036E+03  0.13892612036E+03  0.00000000000E+00 0. -1.
         25    1    1    2    0    0  0.16839992765E+03 -0.11912562356E+03  0.13901875631E+03  0.27838941148E+03  0.12500000000E+03 0.  0.
         21    1    1    2  503  502 -0.31783213961E+02  0.78785341768E+02  0.69695078843E+02  0.10988497068E+03  0.00000000000E+00 0.  1.
          2    1    1    2  501    0 -0.13661671369E+03  0.40340281788E+02  0.54074801964E+02  0.15236649566E+03  0.00000000000E+00 0.  1.
<mgrwt>
<rscale>  4 0.32740729E+03</rscale>
<asrwt>0</asrwt>
<pdfrwt beam="1">  1       21 0.21373250E-01 0.32740729E+03</pdfrwt>
<pdfrwt beam="2">  1        2 0.61802270E-01 0.32740729E+03</pdfrwt>
<totfact> 0.19850058E+04</totfact>
</mgrwt>
</event>
<event>
 5    0  0.3188794E-002  0.4284833E+03  0.7546771E-02  0.1034340E+00
         21   -1    0    0  503  502  0.00000000000E+00  0.00000000000E+00  0.26251257907E+03  0.26251257907E+03  0.00000000000E+00 0. -1.
         -4   -1    0    0    0  501 -0.00000000000E+00 -0.00000000000E+00 -0.28245095350E+03  0.28245095350E+03  0.00000000000E+00 0.  1.
         25    1    1    2    0    0 -0.50108406231E+01  0.21335288288E+03 -0.57400924761E+02  0.25389845868E+03  0.12500000000E+03 0.  0.
         21    1    1    2  503  501 -0.83675832342E+02 -0.15805437565E+03 -0.33393406727E+01  0.17886861596E+03  0.00000000000E+00 0. -1.
         -4    1    1    2    0  502  0.88686672965E+02 -0.55298507226E+02  0.40801890999E+02  0.11219645793E+03  0.00000000000E+00 0.  1.
<mgrwt>
<rscale>  4 0.42848333E+03</rscale>
<asrwt>0</asrwt>
<pdfrwt beam="1">  1       21 0.40386551E-01 0.42848333E+03</pdfrwt>
<pdfrwt beam="2">  1       -4 0.43453993E-01 0.42848333E+03</pdfrwt>
<totfact> 0.12785047E+03</totfact>
</mgrwt>
</event>
<event>
 5    0  0.3188794E-002  0.5369543E+03  0.7546771E-02  0.1004559E+00
         21   -1    0    0  501  502  0.00000000000E+00  0.00000000000E+00  0.96144312716E+02  0.96144312716E+02  0.00000000000E+00 0. -1.
          2   -1    0    0  503    0 -0.00000000000E+00 -0.00000000000E+00 -0.98397694264E+03  0.98397694264E+03  0.00000000000E+00 0.  1.
         25    1    1    2    0    0 -0.82061725823E+02  0.21547860206E+03 -0.31803780517E+03  0.41223561262E+03  0.12500000000E+03 0.  0.
         21    1    1    2  503  502  0.45274016899E+02 -0.25595243479E+03 -0.55239069283E+03  0.61048903594E+03  0.00000000000E+00 0.  1.
          2    1    1    2  501    0  0.36787708924E+02  0.40473832723E+02 -0.17404131917E+02  0.57396606790E+02  0.00000000000E+00 0.  1.
<mgrwt>
<rscale>  4 0.53695432E+03</rscale>
<asrwt>0</asrwt>
<pdfrwt beam="1">  1       21 0.14791433E-01 0.53695432E+03</pdfrwt>
<pdfrwt beam="2">  1        2 0.15138107E+00 0.53695432E+03</pdfrwt>
<totfact> 0.12961567E+04</totfact>
</mgrwt>
</event>
<event>
 5    0  0.3188794E-002  0.5107249E+03  0.7546771E-02  0.1011017E+00
         21   -1    0    0  503  502  0.00000000000E+00  0.00000000000E+00  0.16580608072E+03  0.16580608072E+03  0.00000000000E+00 0.  1.
         -3   -1    0    0    0  501 -0.00000000000E+00 -0.00000000000E+00 -0.11992804539E+04  0.11992804539E+04  0.00000000000E+00 0. -1.
         25    1    1    2    0    0  0.20831333802E+03  0.25047419519E+03 -0.23510950133E+03  0.42075318997E+03  0.12500000000E+03 0.  0.
         21    1    1    2  503  501 -0.33705591398E+02  0.86858780099E+02 -0.32121135296E+03  0.33445066578E+03  0.00000000000E+00 0. -1.
         -3    1    1    2    0  502 -0.17460774662E+03 -0.33733297528E+03 -0.47715351888E+03  0.60988267886E+03  0.00000000000E+00 0. -1.
<mgrwt>
<rscale>  4 0.51072495E+03</rscale>
<asrwt>0</asrwt>
<pdfrwt beam="1">  1       21 0.25508628E-01 0.51072495E+03</pdfrwt>
<pdfrwt beam="2">  1       -3 0.18450468E+00 0.51072495E+03</pdfrwt>
<totfact> 0.13455914E+02</totfact>
</mgrwt>
</event>
<event>
 5    0  0.3188794E-002  0.3777990E+03  0.7546771E-02  0.1051750E+00
         21   -1    0    0  501  502  0.00000000000E+00  0.00000000000E+00  0.14907518070E+03  0.14907518070E+03  0.00000000000E+00 0.  1.
          1   -1    0    0  503    0 -0.00000000000E+00 -0.00000000000E+00 -0.98081969810E+03  0.98081969810E+03  0.00000000000E+00 0.  1.
         25    1    1    2    0    0  0.20435852453E+03  0.77237747406E+01 -0.15359760043E+03  0.28467399969E+03  0.12500000000E+03 0.  0.
         21    1    1    2  503  502  0.13527368077E+03 -0.27871264014E+02 -0.87224824937E+02  0.16335221502E+03  0.00000000000E+00 0.  1.
          1    1    1    2  501    0 -0.33963220530E+03  0.20147489274E+02 -0.59092209203E+03  0.68186866408E+03  0.00000000000E+00 0.  1.
<mgrwt>
<rscale>  4 0.37779895E+03</rscale>
<asrwt>0</asrwt>
<pdfrwt beam="1">  1       21 0.22934644E-01 0.37779895E+03</pdfrwt>
<pdfrwt beam="2">  1        1 0.15089534E+00 0.37779895E+03</pdfrwt>
<totfact> 0.31287374E+03</totfact>
</mgrwt>
</event>
<event>
 5    0  0.3188794E-002  0.3870542E+03  0.7546771E-02  0.1048357E+00
         21   -1    0    0  501  502  0.00000000000E+00  0.00000000000E+00  0.67115167673E+02  0.67115167673E+02  0.00000000000E+00 0. -1.
          2   -1    0    0  503    0 -0.00000000000E+00 -0.00000000000E+00 -0.25027764155E+04  0.25027764155E+04  0.00000000000E+00 0. -1.
         25    1    1    2    0    0  0.21962863906E+03  0.48786070235E+02 -0.19616595704E+04  0.19784716550E+04  0.12500000000E+03 0.  0.
         21    1    1    2  503  502 -0.95029154595E+02 -0.61712140605E+02 -0.44977819283E+03  0.46383116677E+03  0.00000000000E+00 0.  1.
          2    1    1    2  501    0 -0.12459948446E+03  0.12926070370E+02 -0.24223484641E+02  0.12758876139E+03  0.00000000000E+00 0. -1.
<mgrwt>
<rscale>  4 0.38705424E+03</rscale>
<asrwt>0</asrwt>
<pdfrwt beam="1">  1       21 0.10325410E-01 0.38705424E+03</pdfrwt>
<pdfrwt beam="2">  1        2 0.38504253E+00 0.38705424E+03</pdfrwt>
<totfact> 0.36962570E+03</totfact>
</mgrwt>
</event>
<event>
 5    0  0.3188794E-002  0.4039221E+03  0.7546771E-02  0.1042430E+00
          2   -1    0    0  503    0 -0.00000000000E+00  0.00000000000E+00  0.80167567871E+03  0.80167567871E+03  0.00000000000E+00 0. -1.
         21   -1    0    0  501  502  0.00000000000E+00 -0.00000000000E+00 -0.68247245403E+02  0.68247245403E+02  0.00000000000E+00 0.  1.
         25    1    1    2    0    0  0.18274817882E+03 -0.84612343540E+02  0.52300081956E+03  0.57420466978E+03  0.12500000000E+03 0.  0.
         21    1    1    2  503  502 -0.12548038982E+03  0.82270160133E+02  0.16040048884E+03  0.21964067087E+03  0.00000000000E+00 0.  1.
          2    1    1    2  501    0 -0.57267788994E+02  0.23421834067E+01  0.50027124909E+02  0.76077583466E+02  0.00000000000E+00 0. -1.
<mgrwt>
<rscale>  4 0.40392212E+03</rscale>
<asrwt>0</asrwt>
<pdfrwt beam="1">  1       21 0.10499577E-01 0.40392212E+03</pdfrwt>
<pdfrwt beam="2">  1        2 0.12333471E+00 0.40392212E+03</pdfrwt>
<totfact> 0.32530166E+04</totfact>
</mgrwt>
</event>
<event>
 5    0  0.3188794E-002  0.5314596E+03  0.7546771E-02  0.1005879E+00
         21   -1    0    0  503  502  0.00000000000E+00  0.00000000000E+00  0.28224052515E+03  0.28224052515E+03  0.00000000000E+00 0.  1.
         -2   -1    0    0    0  501 -0.00000000000E+00 -0.00000000000E+00 -0.84750956971E+03  0.84750956971E+03  0.00000000000E+00 0.  1.
         25    1    1    2    0    0 -0.48412432496E+02  0.22296098363E+03 -0.59034980154E+02  0.26676861271E+03  0.12500000000E+03 0.  0.
         21    1    1    2  503  501  0.13602647894E+03  0.21293793454E+03 -0.21189245765E+03  0.32976382541E+03  0.00000000000E+00 0.  1.
         -2    1    1    2    0  502 -0.87614046446E+02 -0.43589891817E+03 -0.29434160676E+03  0.53321765674E+03  0.00000000000E+00 0.  1.
<mgrwt>
<rscale>  4 0.53145957E+03</rscale>
<asrwt>0</asrwt>
<pdfrwt beam="1">  1       21 0.43421620E-01 0.53145957E+03</pdfrwt>
<pdfrwt beam="2">  1       -2 0.13038609E+00 0.53145957E+03</pdfrwt>
<totfact> 0.17218150E+02</totfact>
</mgrwt>
</event>
<event>
 5    0  0.3188794E-002  0.4583483E+03  0.7546771E-02  0.1025261E+00
         21   -1    0    0  501  502  0.00000000000E+00  0.00000000000E+00  0.10789371838E+03  0.10789371838E+03  0.00000000000E+00 0. -1.
          2   -1    0    0  503    0 -0.00000000000E+00 -0.00000000000E+00 -0.79493115130E+03  0.79493115130E+03  0.00000000000E+00 0.  1.
         25    1    1    2    0    0  0.46758932330E+02 -0.21971502666E+03 -0.43888629847E+03  0.50863274931E+03  0.12500000000E+03 0.  0.
         21    1    1    2  503  502 -0.49804971435E+02  0.19369856084E+03 -0.28549427164E+03  0.34857803544E+03  0.00000000000E+00 0.  1.
          2    1    1    2  501    0  0.30460391049E+01  0.26016465821E+02  0.37343137193E+02  0.45614084925E+02  0.00000000000E+00 0.  1.
<mgrwt>
<rscale>  4 0.45834825E+03</rscale>
<asrwt>0</asrwt>
<pdfrwt beam="1">  1       21 0.16599033E-01 0.45834825E+03</pdfrwt>
<pdfrwt beam="2">  1        2 0.12229710E+00 0.45834825E+03</pdfrwt>
<totfact> 0.14113785E+04</totfact>
</mgrwt>
</event>
<event>
 5    0  0.3188794E-002  0.4703895E+03  0.7546771E-02  0.1021810E+00
         21   -1    0    0  501  502  0.00000000000E+00  0.00000000000E+00  0.62413280089E+02  0.62413280089E+02  0.00000000000E+00 0.  1.
          2   -1    0    0  503    0 -0.00000000000E+00 -0.00000000000E+00 -0.12889321017E+04  0.12889321017E+04  0.00000000000E+00 0. -1.
         25    1    1    2    0    0  0.50163590680E+01  0.21333832131E+03 -0.85830100316E+03  0.89322114576E+03  0.12500000000E+03 0.  0.
         21    1    1    2  503  502  0.45512768433E+02 -0.19489448595E+03 -0.34643578766E+03  0.40009127424E+03  0.00000000000E+00 0.  1.
          2    1    1    2  501    0 -0.50529127501E+02 -0.18443835358E+02 -0.21782030769E+02  0.58032961782E+02  0.00000000000E+00 0. -1.
<mgrwt>
<rscale>  4 0.47038950E+03</rscale>
<asrwt>0</asrwt>
<pdfrwt beam="1">  1       21 0.96020434E-02 0.47038950E+03</pdfrwt>
<pdfrwt beam="2">  1        2 0.19829724E+00 0.47038950E+03</pdfrwt>
<totfact> 0.18899259E+04</totfact>
</mgrwt>
</event>
<event>
 5    0  0.3188794E-002  0.4572062E+03  0.7546771E-02  0.1025595E+00
         21   -1    0    0  501  502  0.00000000000E+00  0.00000000000E+00  0.36162069763E+03  0.36162069763E+03  0.00000000000E+00 0.  1.
          1   -1    0    0  503    0 -0.00000000000E+00 -0.00000000000E+00 -0.14768316920E+04  0.14768316920E+04  0.00000000000E+00 0.  1.
         25    1    1    2    0    0 -0.17611173437E+03  0.17108011534E+03 -0.95092510443E+03  0.99003399088E+03  0.12500000000E+03 0.  0.
         21    1    1    2  503  502  0.16685531440E+03 -0.63943442248E+02 -0.48143920233E+03  0.51353010164E+03  0.00000000000E+00 0. -1.
          1    1    1    2  501    0  0.92564199729E+01 -0.10713667309E+03  0.31715331235E+03  0.33488829715E+03  0.00000000000E+00 0.  1.
<mgrwt>
<rscale>  4 0.45720616E+03</rscale>
<asrwt>0</asrwt>
<pdfrwt beam="1">  1       21 0.55633953E-01 0.45720616E+03</pdfrwt>
<pdfrwt beam="2">  1        1 0.22720488E+00 0.45720616E+03</pdfrwt>
<totfact> 0.22445998E+02</totfact>
</mgrwt>
</event>
<event>
 5    0  0.3188794E-002  0.5325568E+03  0.7546771E-02  0.1005614E+00
          2   -1    0    0  503    0 -0.00000000000E+00  0.00000000000E+00  0.54736462725E+03  0.54736462725E+03  0.00000000000E+00 0. -1.
         21   -1    0    0  501  502  0.00000000000E+00 -0.00000000000E+00 -0.23432887495E+03  0.23432887495E+03  0.00000000000E+00 0. -1.
         25    1    1    2    0    0  0.24062349423E+03  0.36883300526E+02  0.11411987347E+03  0.29649348957E+03  0.12500000000E+03 0.  0.
         21    1    1    2  503  502 -0.22249341593E+03 -0.57188042247E+02  0.30151107344E+03  0.37905503521E+03  0.00000000000E+00 0.  1.
          2    1    1    2  501    0 -0.18130078304E+02  0.20304741722E+02 -0.10259519461E+03  0.10614497743E+03  0.00000000000E+00 0. -1.
<mgrwt>
<rscale>  4 0.53255678E+03</rscale>
<asrwt>0</asrwt>
<pdfrwt beam="1">  1       21 0.36050596E-01 0.53255678E+03</pdfrwt>
<pdfrwt beam="2">  1        2 0.84209942E-01 0.53255678E+03</pdfrwt>
<totfact> 0.48769547E+03</totfact>
</mgrwt>
</event>
<event>
 5    0  0.3188794E-002  0.6384154E+03  0.7546771E-02  0.9828763E-01
         21   -1    0    0  501  502  0.00000000000E+00  0.00000000000E+00  0.11428401333E+03  0.11428401333E+03  0.00000000000E+00 0. -1.
          2   -1    0    0  503    0 -0.00000000000E+00 -0.00000000000E+00 -0.29042500155E+04  0.29042500155E+04  0.00000000000E+00 0.  1.
         25    1    1    2    0    0 -0.29737067024E+03  0.58738057645E+02 -0.21249326912E+04  0.21500798629E+04  0.12500000000E+03 0.  0.
         21    1    1    2  503  502  0.19426524787E+02  0.18494448220E+03 -0.26558539846E+03  0.32421822163E+03  0.00000000000E+00 0. -1.
          2    1    1    2  501    0  0.27794414546E+03 -0.24368253984E+03 -0.39944791253E+03  0.54423594428E+03  0.00000000000E+00 0.  1.
<mgrwt>
<rscale>  4 0.63841544E+03</rscale>
<asrwt>0</asrwt>
<pdfrwt beam="1">  1       21 0.17582155E-01 0.63841544E+03</pdfrwt>
<pdfrwt beam="2">  1        2 0.44680771E+00 0.63841544E+03</pdfrwt>
<totfact> 0.76166927E+02</totfact>
</mgrwt>
</event>
<event>
 5    0  0.3188794E-002  0.5509010E+03  0.7546771E-02  0.1001286E+00
         -2   -1    0    0    0  501 -0.00000000000E+00  0.00000000000E+00  0.26428781814E+03  0.26428781814E+03  0.00000000000E+00 0. -1.
         21   -1    0    0  501  502  0.00000000000E+00 -0.00000000000E+00 -0.36033150836E+03  0.36033150836E+03  0.00000000000E+00 0.  1.
         25    1    1    2    0    0  0.21811520656E+03 -0.54553548999E+02 -0.24286829972E+03  0.35378007865E+03  0.12500000000E+03 0.  0.
         21    1    1    2  503  502 -0.18163905196E+03  0.42480412374E+02  0.10506659823E+03  0.21409418651E+03  0.00000000000E+00 0. -1.
         -2    1    1    2    0  503 -0.36476154594E+02  0.12073136625E+02  0.41758011266E+02  0.56745061343E+02  0.00000000000E+00 0. -1.
<mgrwt>
<rscale>  4 0.55090096E+03</rscale>
<asrwt>0</asrwt>
<pdfrwt beam="1">  1       21 0.55435616E-01 0.55090096E+03</pdfrwt>
<pdfrwt beam="2">  1       -2 0.40659665E-01 0.55090096E+03</pdfrwt>
<totfact> 0.13309769E+03</totfact>
</mgrwt>
</event>
<event>
 5    0  0.3188794E-002  0.3106434E+03  0.7546771E-02  0.1080038E+00
          2   -1    0    0  502    0 -0.00000000000E+00  0.00000000000E+00  0.57446870356E+03  0.57446870356E+03  0.00000000000E+00 0.  1.
         21   -1    0    0  503  502  0.00000000000E+00 -0.00000000000E+00 -0.12771024025E+03  0.12771024025E+03  0.00000000000E+00 0.  1.
         25    1    1    2    0    0  0.64836879044E+02  0.21316101521E+03  0.30025738039E+03  0.39423461767E+03  0.12500000000E+03 0.  0.
         21    1    1    2  503  501 -0.54865207189E+02 -0.24854058730E+01  0.55996624640E+02  0.78434623562E+02  0.00000000000E+00 0. -1.
          2    1    1    2  501    0 -0.99716718549E+01 -0.21067560934E+03  0.90504458276E+02  0.22950970258E+03  0.00000000000E+00 0.  1.
<mgrwt>
<rscale>  4 0.31064336E+03</rscale>
<asrwt>0</asrwt>
<pdfrwt beam="1">  1       21 0.19647730E-01 0.31064336E+03</pdfrwt>
<pdfrwt beam="2">  1        2 0.88379799E-01 0.31064336E+03</pdfrwt>
<totfact> 0.15591644E+04</totfact>
</mgrwt>
</event>
<event>
 5    0  0.3188794E-002  0.4671309E+03  0.7546771E-02  0.1022733E+00
          4   -1    0    0  503    0 -0.00000000000E+00  0.00000000000E+00  0.39330703657E+03  0.39330703657E+03  0.00000000000E+00 0. -1.
         21   -1    0    0  501  502  0.00000000000E+00 -0.00000000000E+00 -0.25320408078E+03  0.25320408078E+03  0.00000000000E+00 0. -1.
         25    1    1    2    0    0  0.24153146416E+03  0.49148220426E+02 -0.77329301687E+02  0.28698051615E+03  0.12500000000E+03 0.  0.
         21    1    1    2  503  502 -0.87561425531E+02  0.50967182597E+01  0.16706780148E+03  0.18869189190E+03  0.00000000000E+00 0.  1.
          4    1    1    2  501    0 -0.15397003862E+03 -0.54244938686E+02  0.50364456000E+02  0.17083870930E+03  0.00000000000E+00 0. -1.
<mgrwt>
<rscale>  4 0.46713086E+03</rscale>
<asrwt>0</asrwt>
<pdfrwt beam="1">  1       21 0.38954474E-01 0.46713086E+03</pdfrwt>
<pdfrwt beam="2">  1        4 0.60508775E-01 0.46713086E+03</pdfrwt>
<totfact> 0.68759472E+02</totfact>
</mgrwt>
</event>
<event>
 5    0  0.3188794E-002  0.6845465E+03  0.7546771E-02  0.9744031E-01
          2   -1    0    0  503    0 -0.00000000000E+00  0.00000000000E+00  0.14863909497E+04  0.14863909497E+04  0.00000000000E+00 0.  1.
         21   -1    0    0  501  502  0.00000000000E+00 -0.00000000000E+00 -0.22027910663E+03  0.22027910663E+03  0.00000000000E+00 0.  1.
         25    1    1    2    0    0  0.19989581757E+03 -0.11988194260E+03  0.13226932306E+04  0.13488782007E+04  0.12500000000E+03 0.  0.
         21    1    1    2  503  502 -0.18456388063E+03  0.64640073472E+02  0.78750912150E+02  0.21081715133E+03  0.00000000000E+00 0. -1.
          2    1    1    2  501    0 -0.15331936945E+02  0.55241869123E+02 -0.13533229964E+03  0.14697470435E+03  0.00000000000E+00 0.  1.
<mgrwt>
<rscale>  4 0.68454650E+03</rscale>
<asrwt>0</asrwt>
<pdfrwt beam="1">  1       21 0.33889094E-01 0.68454650E+03</pdfrwt>
<pdfrwt beam="2">  1        2 0.22867552E+00 0.68454650E+03</pdfrwt>
<totfact> 0.12901983E+03</totfact>
</mgrwt>
</event>
<event>
 5    0  0.3188794E-002  0.3067671E+03  0.7546771E-02  0.1081906E+00
          2   -1    0    0  503    0 -0.00000000000E+00  0.00000000000E+00  0.23920799529E+04  0.23920799529E+04  0.00000000000E+00 0. -1.
         21   -1    0    0  501  502  0.00000000000E+00 -0.00000000000E+00 -0.34561873371E+02  0.34561873371E+02  0.00000000000E+00 0. -1.
         25    1    1    2    0    0  0.82138597795E+02  0.18374076845E+03  0.99085888687E+03  0.10187903381E+04  0.12500000000E+03 0.  0.
         21    1    1    2  503  502  0.39132241052E+02  0.48806680386E+02  0.45285472851E+03  0.45715514814E+03  0.00000000000E+00 0. -1.
          2    1    1    2  501    0 -0.12127083885E+03 -0.23254744883E+03  0.91380446412E+03  0.95069634003E+03  0.00000000000E+00 0. -1.
<mgrwt>
<rscale>  4 0.30676713E+03</rscale>
<asrwt>0</asrwt>
<pdfrwt beam="1">  1       21 0.53172132E-02 0.30676713E+03</pdfrwt>
<pdfrwt beam="2">  1        2 0.36801217E+00 0.30676713E+03</pdfrwt>
<totfact> 0.13957832E+04</totfact>
</mgrwt>
</event>
<event>
 5    0  0.3188794E-002  0.5723736E+03  0.7546771E-02  0.9964440E-01
          3   -1    0    0  502    0 -0.00000000000E+00  0.00000000000E+00  0.10864743661E+04  0.10864743661E+04  0.00000000000E+00 0. -1.
         21   -1    0    0  503  502  0.00000000000E+00 -0.00000000000E+00 -0.11032845225E+03  0.11032845225E+03  0.00000000000E+00 0.  1.
         25    1    1    2    0    0 -0.29497478230E+03 -0.10860050243E+03  0.45239345049E+03  0.56487965565E+03  0.12500000000E+03 0.  0.
         21    1    1    2  503  501  0.22990243805E+03  0.33696013721E+02  0.25274503325E+03  0.34332288621E+03  0.00000000000E+00 0.  1.
          3    1    1    2  501    0  0.65072344244E+02  0.74904488712E+02  0.27100743009E+03  0.28860027647E+03  0.00000000000E+00 0. -1.
<mgrwt>
<rscale>  4 0.57237363E+03</rscale>
<asrwt>0</asrwt>
<pdfrwt beam="1">  1       21 0.16973609E-01 0.57237363E+03</pdfrwt>
<pdfrwt beam="2">  1        3 0.16714990E+00 0.57237363E+03</pdfrwt>
<totfact> 0.38376498E+02</totfact>
</mgrwt>
</event>
<event>
 5    0  0.3188794E-002  0.7420161E+03  0.7546771E-02  0.9647960E-01
          2   -1    0    0  503    0 -0.00000000000E+00  0.00000000000E+00  0.60367980836E+03  0.60367980836E+03  0.00000000000E+00 0.  1.
         21   -1    0    0  501  502  0.00000000000E+00 -0.00000000000E+00 -0.63272855096E+03  0.63272855096E+03  0.00000000000E+00 0.  1.
         25    1    1    2    0    0 -0.29737009245E+03  0.32575804298E+02  0.41190777451E+03  0.52419764365E+03  0.12500000000E+03 0.  0.
         21    1    1    2  503  502  0.29554108021E+03  0.58246765677E+02 -0.43314559314E+02  0.30432444340E+03  0.00000000000E+00 0. -1.
          2    1    1    2  501    0  0.18290122343E+01 -0.90822569975E+02 -0.39764195780E+03  0.40788627227E+03  0.00000000000E+00 0.  1.
<mgrwt>
<rscale>  4 0.74201610E+03</rscale>
<asrwt>0</asrwt>
<pdfrwt beam="1">  1       21 0.97342854E-01 0.74201610E+03</pdfrwt>
<pdfrwt beam="2">  1        2 0.92873817E-01 0.74201610E+03</pdfrwt>
<totfact> 0.46652547E+02</totfact>
</mgrwt>
</event>
<event>
 5    0  0.3188794E-002  0.3870630E+03  0.7546771E-02  0.1048354E+00
         21   -1    0    0  503  502  0.00000000000E+00  0.00000000000E+00  0.37901345119E+03  0.37901345119E+03  0.00000000000E+00 0. -1.
         -2   -1    0    0    0  501 -0.00000000000E+00 -0.00000000000E+00 -0.20558054232E+03  0.20558054232E+03  0.00000000000E+00 0.  1.
         25    1    1    2    0    0 -0.18599490864E+03 -0.17399911564E+03  0.11491002935E+03  0.30610310865E+03  0.12500000000E+03 0.  0.
         21    1    1    2  503  501  0.37672727663E+02  0.89048501643E+02 -0.32493153104E+01  0.96744137313E+02  0.00000000000E+00 0.  1.
         -2    1    1    2    0  502  0.14832218097E+03  0.84950614001E+02  0.61772194825E+02  0.18174674754E+03  0.00000000000E+00 0.  1.
<mgrwt>
<rscale>  4 0.38706303E+03</rscale>
<asrwt>0</asrwt>
<pdfrwt beam="1">  1       21 0.58309762E-01 0.38706303E+03</pdfrwt>
<pdfrwt beam="2">  1       -2 0.31627776E-01 0.38706303E+03</pdfrwt>
<totfact> 0.19668054E+03</totfact>
</mgrwt>
</event>
<event>
 5    0  0.3188794E-002  0.7246401E+03  0.7546771E-02  0.9675998E-01
          2   -1    0    0  503    0 -0.00000000000E+00  0.00000000000E+00  0.50037298534E+03  0.50037298534E+03  0.00000000000E+00 0. -1.
         21   -1    0    0  501  502  0.00000000000E+00 -0.00000000000E+00 -0.11111604299E+04  0.11111604299E+04  0.00000000000E+00 0. -1.
         25    1    1    2    0    0 -0.53943553390E+03  0.47856113244E+02 -0.93879835661E+02  0.56366597054E+03  0.12500000000E+03 0.  0.
         21    1    1    2  503  502 -0.28265913453E+02  0.44336256717E+02  0.15485131511E+03  0.16353469147E+03  0.00000000000E+00 0. -1.
          2    1    1    2  501    0  0.56770144735E+03 -0.92192369962E+02 -0.67175892398E+03  0.88433275318E+03  0.00000000000E+00 0. -1.
<mgrwt>
<rscale>  4 0.72464010E+03</rscale>
<asrwt>0</asrwt>
<pdfrwt beam="1">  1       21 0.17094776E+00 0.72464010E+03</pdfrwt>
<pdfrwt beam="2">  1        2 0.76980460E-01 0.72464010E+03</pdfrwt>
<totfact> 0.13184811E+02</totfact>
</mgrwt>
</event>
<event>
 5    0  0.3188794E-002  0.4177548E+03  0.7546771E-02  0.1037800E+00
         21   -1    0    0  501  502  0.00000000000E+00  0.00000000000E+00  0.17198135092E+03  0.17198135092E+03  0.00000000000E+00 0. -1.
          1   -1    0    0  503    0 -0.00000000000E+00 -0.00000000000E+00 -0.91193611249E+03  0.91193611249E+03  0.00000000000E+00 0. -1.
         25    1    1    2    0    0 -0.20705723427E+03 -0.61268722519E+02 -0.45572222628E+03  0.51955202064E+03  0.12500000000E+03 0.  0.
         21    1    1    2  503  502  0.16525462674E+03 -0.24164074284E+01 -0.39600046732E+03  0.42910523278E+03  0.00000000000E+00 0. -1.
          1    1    1    2  501    0  0.41802607532E+02  0.63685129947E+02  0.11176793204E+03  0.13526020998E+03  0.00000000000E+00 0. -1.
<mgrwt>
<rscale>  4 0.41775476E+03</rscale>
<asrwt>0</asrwt>
<pdfrwt beam="1">  1       21 0.26458669E-01 0.41775476E+03</pdfrwt>
<pdfrwt beam="2">  1        1 0.14029786E+00 0.41775476E+03</pdfrwt>
<totfact> 0.26606247E+03</totfact>
</mgrwt>
</event>
<event>
 5    0  0.3188794E-002  0.4121505E+03  0.7546771E-02  0.1039652E+00
          2   -1    0    0  503    0 -0.00000000000E+00  0.00000000000E+00  0.11914778350E+03  0.11914778350E+03  0.00000000000E+00 0.  1.
         21   -1    0    0  501  502  0.00000000000E+00 -0.00000000000E+00 -0.94175024808E+03  0.94175024808E+03  0.00000000000E+00 0. -1.
         25    1    1    2    0    0 -0.17635117185E+03 -0.13376660727E+03 -0.24419062788E+03  0.35248731010E+03  0.12500000000E+03 0.  0.
         21    1    1    2  503  502  0.13769729387E+03  0.71412218656E+01 -0.25945371945E+02  0.14030218856E+03  0.00000000000E+00 0.  1.
          2    1    1    2  501    0  0.38653877982E+02  0.12662538540E+03 -0.55246646475E+03  0.56810853293E+03  0.00000000000E+00 0.  1.
<mgrwt>
<rscale>  4 0.41215050E+03</rscale>
<asrwt>0</asrwt>
<pdfrwt beam="1">  1       21 0.14488465E+00 0.41215050E+03</pdfrwt>
<pdfrwt beam="2">  1        2 0.18330428E-01 0.41215050E+03</pdfrwt>
<totfact> 0.11347663E+03</totfact>
</mgrwt>
</event>
<event>
 5    0  0.3188794E-002  0.5169891E+03  0.7546771E-02  0.1009437E+00
         21   -1    0    0  501  502  0.00000000000E+00  0.00000000000E+00  0.34292970691E+03  0.34292970691E+03  0.00000000000E+00 0.  1.
         -1   -1    0    0    0  501 -0.00000000000E+00 -0.00000000000E+00 -0.37414503766E+03  0.37414503766E+03  0.00000000000E+00 0. -1.
         25    1    1    2    0    0  0.10162435925E+03  0.28386116047E+03 -0.84391699767E+02  0.33712257089E+03  0.12500000000E+03 0.  0.
         21    1    1    2  503  502 -0.42747511412E+02 -0.11425076497E+03  0.13560218175E+03  0.18239665217E+03  0.00000000000E+00 0.  1.
         -1    1    1    2    0  503 -0.58876847842E+02 -0.16961039550E+03 -0.82425812730E+02  0.19755552150E+03  0.00000000000E+00 0. -1.
<mgrwt>
<rscale>  4 0.51698908E+03</rscale>
<asrwt>0</asrwt>
<pdfrwt beam="1">  1       21 0.52758416E-01 0.51698908E+03</pdfrwt>
<pdfrwt beam="2">  1       -1 0.57560775E-01 0.51698908E+03</pdfrwt>
<totfact> 0.91567096E+02</totfact>
</mgrwt>
</event>
<event>
 5    0  0.3188794E-002  0.5979987E+03  0.7546771E-02  0.9909567E-01
         21   -1    0    0  501  502  0.00000000000E+00  0.00000000000E+00  0.32246052638E+03  0.32246052638E+03  0.00000000000E+00 0.  1.
          3   -1    0    0  503    0 -0.00000000000E+00 -0.00000000000E+00 -0.33294131646E+03  0.33294131646E+03  0.00000000000E+00 0. -1.
         25    1    1    2    0    0 -0.26056639031E+03 -0.13070310809E+03 -0.22098484008E+02  0.31794887831E+03  0.12500000000E+03 0.  0.
         21    1    1    2  503  502  0.25914264834E+03  0.10739563062E+03 -0.37554651821E+02  0.28301781842E+03  0.00000000000E+00 0.  1.
          3    1    1    2  501    0  0.14237419637E+01  0.23307477469E+02  0.49172345743E+02  0.54435146119E+02  0.00000000000E+00 0. -1.
<mgrwt>
<rscale>  4 0.59799872E+03</rscale>
<asrwt>0</asrwt>
<pdfrwt beam="1">  1       21 0.49609312E-01 0.59799872E+03</pdfrwt>
<pdfrwt beam="2">  1        3 0.51221741E-01 0.59799872E+03</pdfrwt>
<totfact> 0.69749339E+02</totfact>
</mgrwt>
</event>
<event>
 5    0  0.3188794E-002  0.4517739E+03  0.7546771E-02  0.1027194E+00
          2   -1    0    0  503    0 -0.00000000000E+00  0.00000000000E+00  0.58178988181E+03  0.58178988181E+03  0.00000000000E+00 0.  1.
         21   -1    0    0  501  502  0.00000000000E+00 -0.00000000000E+00 -0.20552270984E+03  0.20552270984E+03  0.00000000000E+00 0. -1.
         25    1    1    2    0    0  0.12173182472E+03  0.20709448460E+03  0.82585763110E+02  0.28311158749E+03  0.12500000000E+03 0.  0.
         21    1    1    2  503  502 -0.10725244400E+03  0.63398319887E+01  0.26800764973E+03  0.28874102674E+03  0.00000000000E+00 0.  1.
          2    1    1    2  501    0 -0.14479380728E+02 -0.21343431659E+03  0.25673759136E+02  0.21545997742E+03  0.00000000000E+00 0.  1.
<mgrwt>
<rscale>  4 0.45177392E+03</rscale>
<asrwt>0</asrwt>
<pdfrwt beam="1">  1       21 0.31618879E-01 0.45177392E+03</pdfrwt>
<pdfrwt beam="2">  1        2 0.89506135E-01 0.45177392E+03</pdfrwt>
<totfact> 0.59814700E+03</totfact>
</mgrwt>
</event>
<event>
 5    0  0.3188794E-002  0.6925928E+03  0.7546771E-02  0.9729984E-01
          2   -1    0    0  503    0 -0.00000000000E+00  0.00000000000E+00  0.86978851791E+03  0.86978851791E+03  0.00000000000E+00 0.  1.
         21   -1    0    0  501  502  0.00000000000E+00 -0.00000000000E+00 -0.22819271255E+03  0.22819271255E+03  0.00000000000E+00 0. -1.
         25    1    1    2    0    0  0.27344917130E+02  0.32906851339E+03  0.58417232281E+03  0.68258049616E+03  0.12500000000E+03 0.  0.
         21    1    1    2  503  502 -0.12134361653E+03 -0.23913178188E+03  0.87132126274E+02  0.28195795752E+03  0.00000000000E+00 0. -1.
          2    1    1    2  501    0  0.93998699399E+02 -0.89936731511E+02 -0.29708643730E+02  0.13344277678E+03  0.00000000000E+00 0.  1.
<mgrwt>
<rscale>  4 0.69259278E+03</rscale>
<asrwt>0</asrwt>
<pdfrwt beam="1">  1       21 0.35106572E-01 0.69259278E+03</pdfrwt>
<pdfrwt beam="2">  1        2 0.13381362E+00 0.69259278E+03</pdfrwt>
<totfact> 0.28207856E+03</totfact>
</mgrwt>
</event>
<event>
 5    0  0.3188794E-002  0.4435758E+03  0.7546771E-02  0.1029655E+00
         21   -1    0    0  503  502  0.00000000000E+00  0.00000000000E+00  0.24903568470E+03  0.24903568470E+03  0.00000000000E+00 0. -1.
          2   -1    0    0  502    0 -0.00000000000E+00 -0.00000000000E+00 -0.52560775928E+03  0.52560775928E+03  0.00000000000E+00 0.  1.
         25    1    1    2    0    0 -0.30145884123E+03 -0.63812373441E+01 -0.17168701887E+03  0.36880833179E+03  0.12500000000E+03 0.  0.
         21    1    1    2  503  501  0.37157755136E+02 -0.51957165761E+02  0.61047506145E+02  0.88357477596E+02  0.00000000000E+00 0. -1.
          2    1    1    2  501    0  0.26430108610E+03  0.58338403105E+02 -0.16593256185E+03  0.31747763460E+03  0.00000000000E+00 0.  1.
<mgrwt>
<rscale>  4 0.44357578E+03</rscale>
<asrwt>0</asrwt>
<pdfrwt beam="1">  1       21 0.38313182E-01 0.44357578E+03</pdfrwt>
<pdfrwt beam="2">  1        2 0.80862732E-01 0.44357578E+03</pdfrwt>
<totfact> 0.45719883E+03</totfact>
</mgrwt>
</event>
<event>
 5    0  0.3188794E-002  0.4858337E+03  0.7546771E-02  0.1017544E+00
         21   -1    0    0  501  502  0.00000000000E+00  0.00000000000E+00  0.88695944840E+02  0.88695944840E+02  0.00000000000E+00 0. -1.
          2   -1    0    0  503    0 -0.00000000000E+00 -0.00000000000E+00 -0.80773226434E+03  0.80773226434E+03  0.00000000000E+00 0.  1.
         25    1    1    2    0    0  0.24329123335E+03  0.17105397059E+02 -0.32623892332E+03  0.42607517403E+03  0.12500000000E+03 0.  0.
         21    1    1    2  503  502 -0.20615913229E+03  0.10338120627E+02 -0.35513962901E+03  0.41077076412E+03  0.00000000000E+00 0.  1.
          2    1    1    2  501    0 -0.37132101067E+02 -0.27443517686E+02 -0.37657767165E+02  0.59582271025E+02  0.00000000000E+00 0.  1.
<mgrwt>
<rscale>  4 0.48583371E+03</rscale>
<asrwt>0</asrwt>
<pdfrwt beam="1">  1       21 0.13645530E-01 0.48583371E+03</pdfrwt>
<pdfrwt beam="2">  1        2 0.12426650E+00 0.48583371E+03</pdfrwt>
<totfact> 0.19833645E+04</totfact>
</mgrwt>
</event>
<event>
 5    0  0.3188794E-002  0.3942592E+03  0.7546771E-02  0.1045786E+00
         21   -1    0    0  501  502  0.00000000000E+00  0.00000000000E+00  0.10310074408E+03  0.10310074408E+03  0.00000000000E+00 0.  1.
          2   -1    0    0  503    0 -0.00000000000E+00 -0.00000000000E+00 -0.15134226814E+04  0.15134226814E+04  0.00000000000E+00 0.  1.
         25    1    1    2    0    0 -0.16280375179E+03 -0.22203505791E+03 -0.83203867998E+03  0.88527848360E+03  0.12500000000E+03 0.  0.
         21    1    1    2  503  502  0.68675135937E+02  0.10576539543E+02 -0.47105323894E+03  0.47615049239E+03  0.00000000000E+00 0.  1.
          2    1    1    2  501    0  0.94128615850E+02  0.21145851837E+03 -0.10723001839E+03  0.25509444948E+03  0.00000000000E+00 0.  1.
<mgrwt>
<rscale>  4 0.39425919E+03</rscale>
<asrwt>0</asrwt>
<pdfrwt beam="1">  1       21 0.15861655E-01 0.39425919E+03</pdfrwt>
<pdfrwt beam="2">  1        2 0.23283422E+00 0.39425919E+03</pdfrwt>
<totfact> 0.57478219E+03</totfact>
</mgrwt>
</event>
<event>
 5    0  0.3188794E-002  0.6616516E+03  0.7546771E-02  0.9785158E-01
         21   -1    0    0  501  502  0.00000000000E+00  0.00000000000E+00  0.22085521669E+03  0.22085521669E+03  0.00000000000E+00 0.  1.
          2   -1    0    0  503    0 -0.00000000000E+00 -0.00000000000E+00 -0.20625088892E+04  0.20625088892E+04  0.00000000000E+00 0.  1.
         25    1    1    2    0    0 -0.23072274435E+03 -0.15389611734E+03 -0.18695310039E+04  0.18941193664E+04  0.12500000000E+03 0.  0.
         21    1    1    2  503  502  0.14871158660E+03  0.64110881348E+02 -0.11723059384E+03  0.19992086742E+03  0.00000000000E+00 0. -1.
          2    1    1    2  501    0  0.82011157752E+02  0.89785235987E+02  0.14510792518E+03  0.18932387210E+03  0.00000000000E+00 0.  1.
<mgrwt>
<rscale>  4 0.66165161E+03</rscale>
<asrwt>0</asrwt>
<pdfrwt beam="1">  1       21 0.33977725E-01 0.66165161E+03</pdfrwt>
<pdfrwt beam="2">  1        2 0.31730906E+00 0.66165161E+03</pdfrwt>
<totfact> 0.62472451E+02</totfact>
</mgrwt>
</event>
<event>
 5    0  0.3188794E-002  0.4217047E+03  0.7546771E-02  0.1036513E+00
         -2   -1    0    0    0  501 -0.00000000000E+00  0.00000000000E+00  0.23727612618E+03  0.23727612618E+03  0.00000000000E+00 0. -1.
         21   -1    0    0  503  502  0.00000000000E+00 -0.00000000000E+00 -0.69876383020E+03  0.69876383020E+03  0.00000000000E+00 0.  1.
         25    1    1    2    0    0 -0.20631070286E+03  0.16683379572E+03 -0.92185345879E+02  0.30744228646E+03  0.12500000000E+03 0.  0.
         21    1    1    2  503  501  0.67822466446E+02  0.60816748364E+02  0.69940429196E+02  0.11484871559E+03  0.00000000000E+00 0. -1.
         -2    1    1    2    0  502  0.13848823641E+03 -0.22765054409E+03 -0.43924278733E+03  0.51374895433E+03  0.00000000000E+00 0. -1.
<mgrwt>
<rscale>  4 0.42170470E+03</rscale>
<asrwt>0</asrwt>
<pdfrwt beam="1">  1       21 0.10750213E+00 0.42170470E+03</pdfrwt>
<pdfrwt beam="2">  1       -2 0.36504020E-01 0.42170470E+03</pdfrwt>
<totfact> 0.36388600E+02</totfact>
</mgrwt>
</event>
<event>
 5    0  0.3188794E-002  0.7136498E+03  0.7546771E-02  0.9694170E-01
         21   -1    0    0  501  502  0.00000000000E+00  0.00000000000E+00  0.66953221514E+03  0.66953221514E+03  0.00000000000E+00 0. -1.
          2   -1    0    0  503    0 -0.00000000000E+00 -0.00000000000E+00 -0.84044283382E+03  0.84044283382E+03  0.00000000000E+00 0. -1.
         25    1    1    2    0    0 -0.25171208672E+03 -0.22568403844E+03 -0.24951953528E+03  0.43838026678E+03  0.12500000000E+03 0.  0.
         21    1    1    2  503  502  0.12191469966E+03  0.31622585393E+03 -0.42506816572E+03  0.54364044202E+03  0.00000000000E+00 0. -1.
          2    1    1    2  501    0  0.12979738706E+03 -0.90541815487E+02  0.50367708233E+03  0.52795434017E+03  0.00000000000E+00 0. -1.
<mgrwt>
<rscale>  4 0.71364985E+03</rscale>
<asrwt>0</asrwt>
<pdfrwt beam="1">  1       21 0.10300496E+00 0.71364985E+03</pdfrwt>
<pdfrwt beam="2">  1        2 0.12929890E+00 0.71364985E+03</pdfrwt>
<totfact> 0.26774000E+02</totfact>
</mgrwt>
</event>
<event>
 5    0  0.3188794E-002  0.4351923E+03  0.7546771E-02  0.1032232E+00
          2   -1    0    0  503    0 -0.00000000000E+00  0.00000000000E+00  0.22057295400E+04  0.22057295400E+04  0.00000000000E+00 0. -1.
         21   -1    0    0  501  502  0.00000000000E+00 -0.00000000000E+00 -0.97770834136E+02  0.97770834136E+02  0.00000000000E+00 0. -1.
         25    1    1    2    0    0 -0.11082300975E+02 -0.26204793771E+03  0.94767764435E+03  0.99121635210E+03  0.12500000000E+03 0.  0.
         21    1    1    2  503  502  0.56409015190E+02  0.50791351961E+02  0.10786434215E+04  0.10813109494E+04  0.00000000000E+00 0.  1.
          2    1    1    2  501    0 -0.45326714215E+02  0.21125658575E+03  0.81637640014E+02  0.23097307270E+03  0.00000000000E+00 0. -1.
<mgrwt>
<rscale>  4 0.43519232E+03</rscale>
<asrwt>0</asrwt>
<pdfrwt beam="1">  1       21 0.15041668E-01 0.43519232E+03</pdfrwt>
<pdfrwt beam="2">  1        2 0.33934297E+00 0.43519232E+03</pdfrwt>
<totfact> 0.26693443E+03</totfact>
</mgrwt>
</event>
<event>
 5    0  0.3188794E-002  0.4881475E+03  0.7546771E-02  0.1016920E+00
         21   -1    0    0  501  502  0.00000000000E+00  0.00000000000E+00  0.10250192858E+03  0.10250192858E+03  0.00000000000E+00 0. -1.
          1   -1    0    0  503    0 -0.00000000000E+00 -0.00000000000E+00 -0.92509365905E+03  0.92509365905E+03  0.00000000000E+00 0.  1.
         25    1    1    2    0    0  0.69056428475E+02  0.21200299523E+03 -0.32049814753E+03  0.40994892715E+03  0.12500000000E+03 0.  0.
         21    1    1    2  503  502 -0.10219939057E+03 -0.18578372014E+03 -0.52737250266E+03  0.56840308115E+03  0.00000000000E+00 0.  1.
          1    1    1    2  501    0  0.33142962092E+02 -0.26219275087E+02  0.25278919726E+02  0.49243579326E+02  0.00000000000E+00 0.  1.
<mgrwt>
<rscale>  4 0.48814753E+03</rscale>
<asrwt>0</asrwt>
<pdfrwt beam="1">  1       21 0.15769528E-01 0.48814753E+03</pdfrwt>
<pdfrwt beam="2">  1        1 0.14232210E+00 0.48814753E+03</pdfrwt>
<totfact> 0.68887648E+03</totfact>
</mgrwt>
</event>
<event>
 5    0  0.3188794E-002  0.5157377E+03  0.7546771E-02  0.1009751E+00
          2   -1    0    0  503    0 -0.00000000000E+00  0.00000000000E+00  0.13474506664E+04  0.13474506664E+04  0.00000000000E+00 0.  1.
         21   -1    0    0  501  502  0.00000000000E+00 -0.00000000000E+00 -0.26446134710E+03  0.26446134710E+03  0.00000000000E+00 0.  1.
         25    1    1    2    0    0 -0.23876374142E+02 -0.23741462953E+03  0.51182854738E+03  0.57838503565E+03  0.12500000000E+03 0.  0.
         21    1    1    2  503  502 -0.25064274799E+02  0.22606865693E+03  0.78322992236E+03  0.81558835622E+03  0.00000000000E+00 0.  1.
          2    1    1    2  501    0  0.48940648941E+02  0.11345972596E+02 -0.21206915046E+03  0.21793862161E+03  0.00000000000E+00 0.  1.
<mgrwt>
<rscale>  4 0.51573770E+03</rscale>
<asrwt>0</asrwt>
<pdfrwt beam="1">  1       21 0.40686362E-01 0.51573770E+03</pdfrwt>
<pdfrwt beam="2">  1        2 0.20730010E+00 0.51573770E+03</pdfrwt>
<totfact> 0.10957809E+03</totfact>
</mgrwt>
</event>
<event>
 5    0  0.3188794E-002  0.4145122E+03  0.7546771E-02  0.1038867E+00
          2   -1    0    0  502    0 -0.00000000000E+00  0.00000000000E+00  0.21547817137E+03  0.21547817137E+03  0.00000000000E+00 0. -1.
         21   -1    0    0  503  502  0.00000000000E+00 -0.00000000000E+00 -0.29837959832E+03  0.29837959832E+03  0.00000000000E+00 0.  1.
         25    1    1    2    0    0 -0.20122626259E+03  0.71054331705E+02  0.17498932259E+01  0.24732324787E+03  0.12500000000E+03 0.  0.
         21    1    1    2  503  501  0.12419168393E+03 -0.66037902136E+02 -0.11687830053E+03  0.18288005908E+03  0.00000000000E+00 0.  1.
          2    1    1    2  501    0  0.77034578654E+02 -0.50164295687E+01  0.32226980348E+02  0.83654462740E+02  0.00000000000E+00 0. -1.
<mgrwt>
<rscale>  4 0.41451217E+03</rscale>
<asrwt>0</asrwt>
<pdfrwt beam="1">  1       21 0.45904553E-01 0.41451217E+03</pdfrwt>
<pdfrwt beam="2">  1        2 0.33150488E-01 0.41451217E+03</pdfrwt>
<totfact> 0.84879164E+03</totfact>
</mgrwt>
</event>
<event>
 5    0  0.3188794E-002  0.4709559E+03  0.7546771E-02  0.1021651E+00
          2   -1    0    0  503    0 -0.00000000000E+00  0.00000000000E+00  0.92775521231E+03  0.92775521231E+03  0.00000000000E+00 0. -1.
         21   -1    0    0  501  502  0.00000000000E+00 -0.00000000000E+00 -0.66295414940E+02  0.66295414940E+02  0.00000000000E+00 0.  1.
         25    1    1    2    0    0  0.18544387781E+03 -0.75129773440E+02  0.32054261763E+03  0.39800312108E+03  0.12500000000E+03 0.  0.
         21    1    1    2  503  502 -0.20807689881E+03  0.78904752615E+02  0.51722019767E+03  0.56306188708E+03  0.00000000000E+00 0. -1.
          2    1    1    2  501    0  0.22633021003E+02 -0.37749791744E+01  0.23696982072E+02  0.32985619091E+02  0.00000000000E+00 0. -1.
<mgrwt>
<rscale>  4 0.47095585E+03</rscale>
<asrwt>0</asrwt>
<pdfrwt beam="1">  1       21 0.10199295E-01 0.47095585E+03</pdfrwt>
<pdfrwt beam="2">  1        2 0.14273156E+00 0.47095585E+03</pdfrwt>
<totfact> 0.28002242E+04</totfact>
</mgrwt>
</event>
<event>
 5    0  0.3188794E-002  0.5158272E+03  0.7546771E-02  0.1009728E+00
          2   -1    0    0  503    0 -0.00000000000E+00  0.00000000000E+00  0.30618518491E+03  0.30618518491E+03  0.00000000000E+00 0. -1.
         21   -1    0    0  501  502  0.00000000000E+00 -0.00000000000E+00 -0.24148638118E+03  0.24148638118E+03  0.00000000000E+00 0.  1.
         25    1    1    2    0    0  0.99806601338E+02  0.19049518223E+03  0.11210154225E+03  0.27283974765E+03  0.12500000000E+03 0.  0.
         21    1    1    2  503  502 -0.10921128945E+03 -0.21659935414E+03 -0.46979866666E+02  0.24708195772E+03  0.00000000000E+00 0.  1.
          2    1    1    2  501    0  0.94046881157E+01  0.26104171905E+02 -0.42287185158E+00  0.27749860720E+02  0.00000000000E+00 0. -1.
<mgrwt>
<rscale>  4 0.51582725E+03</rscale>
<asrwt>0</asrwt>
<pdfrwt beam="1">  1       21 0.37151751E-01 0.51582725E+03</pdfrwt>
<pdfrwt beam="2">  1        2 0.47105413E-01 0.51582725E+03</pdfrwt>
<totfact> 0.88303569E+03</totfact>
</mgrwt>
</event>
<event>
 5    0  0.3188794E-002  0.3617405E+03  0.7546771E-02  0.1057897E+00
         -1   -1    0    0    0  501 -0.00000000000E+00  0.00000000000E+00  0.35439077425E+02  0.35439077425E+02  0.00000000000E+00 0.  1.
         21   -1    0    0  501  502  0.00000000000E+00 -0.00000000000E+00 -0.17713000836E+04  0.17713000836E+04  0.00000000000E+00 0. -1.
         25    1    1    2    0    0  0.85677417341E+02  0.18546215182E+03 -0.11631392539E+04  0.11875414745E+04  0.12500000000E+03 0.  0.
         21    1    1    2  503  502 -0.12143767474E+01 -0.11660933102E+03 -0.38352969669E+03  0.40086685949E+03  0.00000000000E+00 0.  1.
         -1    1    1    2    0  503 -0.84463040593E+02 -0.68852820804E+02 -0.18919205562E+03  0.21833082712E+03  0.00000000000E+00 0.  1.
<mgrwt>
<rscale>  4 0.36174050E+03</rscale>
<asrwt>0</asrwt>
<pdfrwt beam="1">  1       21 0.27250771E+00 0.36174050E+03</pdfrwt>
<pdfrwt beam="2">  1       -1 0.54521657E-02 0.36174050E+03</pdfrwt>
<totfact> 0.61035422E+02</totfact>
</mgrwt>
</event>
<event>
 5    0  0.3188794E-002  0.4639151E+03  0.7546771E-02  0.1023652E+00
          1   -1    0    0  502    0 -0.00000000000E+00  0.00000000000E+00  0.32541927162E+03  0.32541927162E+03  0.00000000000E+00 0.  1.
         21   -1    0    0  503  502  0.00000000000E+00 -0.00000000000E+00 -0.52327610592E+03  0.52327610592E+03  0.00000000000E+00 0. -1.
         25    1    1    2    0    0  0.25500153006E+03 -0.20945249722E+03 -0.28089735922E+03  0.45102600295E+03  0.12500000000E+03 0.  0.
         21    1    1    2  503  501  0.14477418994E+02  0.90311157218E+02 -0.31243701746E+00  0.91464738537E+02  0.00000000000E+00 0.  1.
          1    1    1    2  501    0 -0.26947894905E+03  0.11914134000E+03  0.83352961927E+02  0.30620463605E+03  0.00000000000E+00 0.  1.
<mgrwt>
<rscale>  4 0.46391514E+03</rscale>
<asrwt>0</asrwt>
<pdfrwt beam="1">  1       21 0.80504016E-01 0.46391514E+03</pdfrwt>
<pdfrwt beam="2">  1        1 0.50064504E-01 0.46391514E+03</pdfrwt>
<totfact> 0.10769674E+03</totfact>
</mgrwt>
</event>
<event>
 5    0  0.3188794E-002  0.1110283E+04  0.7546771E-02  0.9195227E-01
         21   -1    0    0  501  502  0.00000000000E+00  0.00000000000E+00  0.18133822488E+03  0.18133822488E+03  0.00000000000E+00 0.  1.
          2   -1    0    0  503    0 -0.00000000000E+00 -0.00000000000E+00 -0.22381360203E+04  0.22381360203E+04  0.00000000000E+00 0. -1.
         25    1    1    2    0    0  0.24196116123E+03  0.30813313591E+03 -0.23161123130E+03  0.47197457076E+03  0.12500000000E+03 0.  0.
         21    1    1    2  503  502 -0.18414917965E+03 -0.32684055262E+03 -0.18456442831E+04  0.18833848484E+04  0.00000000000E+00 0. -1.
          2    1    1    2  501    0 -0.57811981572E+02  0.18707416711E+02  0.20457718995E+02  0.64114826053E+02  0.00000000000E+00 0. -1.
<mgrwt>
<rscale>  4 0.11102826E+04</rscale>
<asrwt>0</asrwt>
<pdfrwt beam="1">  1       21 0.27898189E-01 0.11102826E+04</pdfrwt>
<pdfrwt beam="2">  1        2 0.34432861E+00 0.11102826E+04</pdfrwt>
<totfact> 0.69322468E+02</totfact>
</mgrwt>
</event>
<event>
 5    0  0.3188794E-002  0.4469571E+03  0.7546771E-02  0.1028633E+00
         21   -1    0    0  501  502  0.00000000000E+00  0.00000000000E+00  0.75029727582E+02  0.75029727582E+02  0.00000000000E+00 0.  1.
          2   -1    0    0  503    0 -0.00000000000E+00 -0.00000000000E+00 -0.13676194830E+04  0.13676194830E+04  0.00000000000E+00 0. -1.
         25    1    1    2    0    0  0.26627183628E+03  0.17483290759E+02 -0.63203009590E+03  0.69734740149E+03  0.12500000000E+03 0.  0.
         21    1    1    2  503  502 -0.13154674822E+03 -0.19364531076E+02 -0.56419179034E+03  0.57964809007E+03  0.00000000000E+00 0. -1.
          2    1    1    2  501    0 -0.13472508806E+03  0.18812403176E+01 -0.96367869199E+02  0.16565371904E+03  0.00000000000E+00 0. -1.
<mgrwt>
<rscale>  4 0.44695714E+03</rscale>
<asrwt>0</asrwt>
<pdfrwt beam="1">  1       21 0.11543035E-01 0.44695714E+03</pdfrwt>
<pdfrwt beam="2">  1        2 0.21040299E+00 0.44695714E+03</pdfrwt>
<totfact> 0.12277457E+04</totfact>
</mgrwt>
</event>
<event>
 5    0  0.3188794E-002  0.3630712E+03  0.7546771E-02  0.1057374E+00
         21   -1    0    0  501  502  0.00000000000E+00  0.00000000000E+00  0.12059371967E+03  0.12059371967E+03  0.00000000000E+00 0. -1.
          2   -1    0    0  503    0 -0.00000000000E+00 -0.00000000000E+00 -0.82430468494E+03  0.82430468494E+03  0.00000000000E+00 0.  1.
         25    1    1    2    0    0 -0.47736985118E+02  0.20723201592E+03 -0.48543343579E+03  0.54451313001E+03  0.12500000000E+03 0.  0.
         21    1    1    2  503  502  0.33197812341E+02 -0.11068309272E+03 -0.26724431550E+03  0.29115694380E+03  0.00000000000E+00 0. -1.
          2    1    1    2  501    0  0.14539172777E+02 -0.96548923200E+02  0.48966786022E+02  0.10922833080E+03  0.00000000000E+00 0.  1.
<mgrwt>
<rscale>  4 0.36307117E+03</rscale>
<asrwt>0</asrwt>
<pdfrwt beam="1">  1       21 0.18552880E-01 0.36307117E+03</pdfrwt>
<pdfrwt beam="2">  1        2 0.12681610E+00 0.36307117E+03</pdfrwt>
<totfact> 0.11066250E+04</totfact>
</mgrwt>
</event>
<event>
 5    0  0.3188794E-002  0.5014589E+03  0.7546771E-02  0.1013399E+00
          2   -1    0    0  503    0 -0.00000000000E+00  0.00000000000E+00  0.93593882033E+03  0.93593882033E+03  0.00000000000E+00 0.  1.
         21   -1    0    0  501  502  0.00000000000E+00 -0.00000000000E+00 -0.19906395391E+03  0.19906395391E+03  0.00000000000E+00 0. -1.
         25    1    1    2    0    0 -0.21605435126E+03 -0.13544668810E+03  0.55018310274E+03  0.61915404752E+03  0.12500000000E+03 0.  0.
         21    1    1    2  503  502 -0.66886670368E+02  0.17176455758E+03  0.12853655827E+03  0.22471879477E+03  0.00000000000E+00 0. -1.
          2    1    1    2  501    0  0.28294102163E+03 -0.36317869474E+02  0.58155205416E+02  0.29112993195E+03  0.00000000000E+00 0.  1.
<mgrwt>
<rscale>  4 0.50145887E+03</rscale>
<asrwt>0</asrwt>
<pdfrwt beam="1">  1       21 0.30625224E-01 0.50145887E+03</pdfrwt>
<pdfrwt beam="2">  1        2 0.14399059E+00 0.50145887E+03</pdfrwt>
<totfact> 0.34513306E+03</totfact>
</mgrwt>
</event>
