<event>
 5    0  0.1943430E+001  0.2311450E+03  0.7546771E-02  0.1125836E+00
         21   -1    0    0  502  501  0.00000000000E+00  0.00000000000E+00  0.13929216632E+04  0.13929216632E+04  0.00000000000E+00 0.  1.
         21   -1    0    0  503  502 -0.00000000000E+00 -0.00000000000E+00 -0.56817930464E+02  0.56817930464E+02  0.00000000000E+00 0.  1.
         25    1    1    2    0    0 -0.19380527247E+03  0.12205871677E+03  0.92656910433E+03  0.96260797788E+03  0.12500000000E+03 0.  0.
         21    1    1    2  503  504  0.11728323480E+03 -0.11288585850E+03  0.36112698997E+03  0.39612028110E+03  0.00000000000E+00 0.  1.
         21    1    1    2  504  501  0.76522037674E+02 -0.91728582638E+01  0.48407638397E+02  0.91011334644E+02  0.00000000000E+00 0. -1.
<mgrwt>
<rscale>  4 0.23114500E+03</rscale>
<asrwt>0</asrwt>
<pdfrwt beam="1">  1       21 0.21429562E+00 0.23114500E+03</pdfrwt>
<pdfrwt beam="2">  1       21 0.87412211E-02 0.23114500E+03</pdfrwt>
<totfact> 0.10871323E+04</totfact>
</mgrwt>
</event>
<event>
 5    0  0.1943430E+001  0.3183304E+03  0.7546771E-02  0.1076420E+00
         21   -1    0    0  504  501  0.00000000000E+00  0.00000000000E+00  0.17708776587E+03  0.17708776587E+03  0.00000000000E+00 0.  1.
         21   -1    0    0  501  502 -0.00000000000E+00 -0.00000000000E+00 -0.13716901756E+04  0.13716901756E+04  0.00000000000E+00 0.  1.
         25    1    1    2    0    0  0.18267461587E+03 -0.21946031626E+03 -0.99480757088E+02  0.32719148327E+03  0.12500000000E+03 0.  0.
         21    1    1    2  503  502 -0.39490081890E+01 -0.28665148156E+02 -0.78682263758E+03  0.78735452523E+03  0.00000000000E+00 0.  1.
         21    1    1    2  504  503 -0.17872560768E+03  0.24812546442E+03 -0.30829901510E+03  0.43423193301E+03  0.00000000000E+00 0.  1.
<mgrwt>
<rscale>  4 0.31833039E+03</rscale>
<asrwt>0</asrwt>
<pdfrwt beam="1">  1       21 0.27244271E-01 0.31833039E+03</pdfrwt>
<pdfrwt beam="2">  1       21 0.21102926E+00 0.31833039E+03</pdfrwt>
<totfact> 0.13182249E+03</totfact>
</mgrwt>
</event>
<event>
 5    0  0.1943430E+001  0.2635372E+03  0.7546771E-02  0.1105036E+00
         21   -1    0    0  504  501  0.00000000000E+00  0.00000000000E+00  0.12915135623E+04  0.12915135623E+04  0.00000000000E+00 0.  1.
         21   -1    0    0  501  502 -0.00000000000E+00 -0.00000000000E+00 -0.40356420519E+03  0.40356420519E+03  0.00000000000E+00 0. -1.
         25    1    1    2    0    0  0.24134098948E+03  0.60076101070E+02  0.99363731169E+03  0.10318889079E+04  0.12500000000E+03 0.  0.
         21    1    1    2  503  502 -0.34927988800E+02 -0.14256052771E+03 -0.32147174488E+03  0.35339432822E+03  0.00000000000E+00 0. -1.
         21    1    1    2  504  503 -0.20641300068E+03  0.82484426641E+02  0.21578379032E+03  0.30979453135E+03  0.00000000000E+00 0.  1.
<mgrwt>
<rscale>  4 0.26353722E+03</rscale>
<asrwt>0</asrwt>
<pdfrwt beam="1">  1       21 0.19869439E+00 0.26353722E+03</pdfrwt>
<pdfrwt beam="2">  1       21 0.62086802E-01 0.26353722E+03</pdfrwt>
<totfact> 0.30486491E+02</totfact>
</mgrwt>
</event>
<event>
 5    0  0.1943430E+001  0.2403959E+03  0.7546771E-02  0.1119529E+00
         21   -1    0    0  504  501  0.00000000000E+00  0.00000000000E+00  0.65271213689E+03  0.65271213689E+03  0.00000000000E+00 0.  1.
         21   -1    0    0  501  502 -0.00000000000E+00 -0.00000000000E+00 -0.73320912628E+03  0.73320912628E+03  0.00000000000E+00 0. -1.
         25    1    1    2    0    0 -0.73813591428E+02  0.19161610363E+03  0.61437805776E+03  0.65973523122E+03  0.12500000000E+03 0.  0.
         21    1    1    2  503  502  0.94702472126E+01 -0.48719353045E+02 -0.23981585549E+03  0.24489774496E+03  0.00000000000E+00 0. -1.
         21    1    1    2  504  503  0.64343344215E+02 -0.14289675059E+03 -0.45505919167E+03  0.48128828699E+03  0.00000000000E+00 0. -1.
<mgrwt>
<rscale>  4 0.24039588E+03</rscale>
<asrwt>0</asrwt>
<pdfrwt beam="1">  1       21 0.10041725E+00 0.24039588E+03</pdfrwt>
<pdfrwt beam="2">  1       21 0.11280140E+00 0.24039588E+03</pdfrwt>
<totfact> 0.47572564E+02</totfact>
</mgrwt>
</event>
<event>
 5    0  0.1943430E+001  0.2718494E+03  0.7546771E-02  0.1100226E+00
         21   -1    0    0  504  501  0.00000000000E+00  0.00000000000E+00  0.13261184626E+04  0.13261184626E+04  0.00000000000E+00 0. -1.
         21   -1    0    0  503  502 -0.00000000000E+00 -0.00000000000E+00 -0.23677879586E+03  0.23677879586E+03  0.00000000000E+00 0. -1.
         25    1    1    2    0    0 -0.73153888890E+02  0.22845816555E+03  0.12174625611E+04  0.12471506375E+04  0.12500000000E+03 0.  0.
         21    1    1    2  503  501  0.69323640070E+02 -0.25183353223E+03 -0.10180632048E+03  0.28033983292E+03  0.00000000000E+00 0. -1.
         21    1    1    2  504  502  0.38302488191E+01  0.23375366684E+02 -0.26316573935E+02  0.35406788012E+02  0.00000000000E+00 0. -1.
<mgrwt>
<rscale>  4 0.27184937E+03</rscale>
<asrwt>0</asrwt>
<pdfrwt beam="1">  1       21 0.20401822E+00 0.27184937E+03</pdfrwt>
<pdfrwt beam="2">  1       21 0.36427508E-01 0.27184937E+03</pdfrwt>
<totfact> 0.85131746E+02</totfact>
</mgrwt>
</event>
<event>
 5    0  0.1943430E+001  0.3405710E+03  0.7546771E-02  0.1066553E+00
         21   -1    0    0  503  501  0.00000000000E+00  0.00000000000E+00  0.26753411324E+03  0.26753411324E+03  0.00000000000E+00 0. -1.
         21   -1    0    0  504  502 -0.00000000000E+00 -0.00000000000E+00 -0.66860945046E+03  0.66860945046E+03  0.00000000000E+00 0.  1.
         25    1    1    2    0    0  0.31496570065E+03 -0.34061821459E+02  0.84794283266E+02  0.35096819050E+03  0.12500000000E+03 0.  0.
         21    1    1    2  503  502 -0.21141920966E+02  0.23980016472E+02 -0.53380072996E+02  0.62221010963E+02  0.00000000000E+00 0. -1.
         21    1    1    2  504  501 -0.29382377968E+03  0.10081804987E+02 -0.43248954749E+03  0.52295436224E+03  0.00000000000E+00 0.  1.
<mgrwt>
<rscale>  4 0.34057099E+03</rscale>
<asrwt>0</asrwt>
<pdfrwt beam="1">  1       21 0.41159095E-01 0.34057099E+03</pdfrwt>
<pdfrwt beam="2">  1       21 0.10286299E+00 0.34057099E+03</pdfrwt>
<totfact> 0.39811005E+03</totfact>
</mgrwt>
</event>
<event>
 5    0  0.1943430E+001  0.2501902E+03  0.7546771E-02  0.1113185E+00
         21   -1    0    0  503  501  0.00000000000E+00  0.00000000000E+00  0.33302567869E+03  0.33302567869E+03  0.00000000000E+00 0. -1.
         21   -1    0    0  504  502 -0.00000000000E+00 -0.00000000000E+00 -0.35816078409E+03  0.35816078409E+03  0.00000000000E+00 0. -1.
         25    1    1    2    0    0  0.11978964508E+03 -0.18643437856E+03  0.13300990884E+03  0.28709575481E+03  0.12500000000E+03 0.  0.
         21    1    1    2  503  502 -0.36183862281E+02 -0.13059714009E+02  0.76088293293E+02  0.85259934294E+02  0.00000000000E+00 0.  1.
         21    1    1    2  504  501 -0.83605782802E+02  0.19949409257E+03 -0.23423330753E+03  0.31883077368E+03  0.00000000000E+00 0. -1.
<mgrwt>
<rscale>  4 0.25019022E+03</rscale>
<asrwt>0</asrwt>
<pdfrwt beam="1">  1       21 0.51234720E-01 0.25019022E+03</pdfrwt>
<pdfrwt beam="2">  1       21 0.55101659E-01 0.25019022E+03</pdfrwt>
<totfact> 0.10861000E+04</totfact>
</mgrwt>
</event>
<event>
 5    0  0.1943430E+001  0.3086753E+03  0.7546771E-02  0.1080983E+00
         21   -1    0    0  504  501  0.00000000000E+00  0.00000000000E+00  0.83861795048E+03  0.83861795048E+03  0.00000000000E+00 0.  1.
         21   -1    0    0  501  502 -0.00000000000E+00 -0.00000000000E+00 -0.54605795217E+03  0.54605795217E+03  0.00000000000E+00 0.  1.
         25    1    1    2    0    0 -0.27476528529E+03  0.97020885278E+02  0.62818314287E+03  0.70366758854E+03  0.12500000000E+03 0.  0.
         21    1    1    2  503  502  0.27482644157E+03  0.75165837722E+02 -0.40515871034E+03  0.49531107065E+03  0.00000000000E+00 0.  1.
         21    1    1    2  504  503 -0.61156279389E-01 -0.17218672300E+03  0.69535565783E+02  0.18569724345E+03  0.00000000000E+00 0.  1.
<mgrwt>
<rscale>  4 0.30867530E+03</rscale>
<asrwt>0</asrwt>
<pdfrwt beam="1">  1       21 0.12901815E+00 0.30867530E+03</pdfrwt>
<pdfrwt beam="2">  1       21 0.84008915E-01 0.30867530E+03</pdfrwt>
<totfact> 0.48948892E+02</totfact>
</mgrwt>
</event>
<event>
 5    0  0.1943430E+001  0.4266863E+03  0.7546771E-02  0.1036528E+00
         21   -1    0    0  504  501  0.00000000000E+00  0.00000000000E+00  0.63637193450E+03  0.63637193450E+03  0.00000000000E+00 0. -1.
         21   -1    0    0  501  502 -0.00000000000E+00 -0.00000000000E+00 -0.74902443863E+03  0.74902443863E+03  0.00000000000E+00 0. -1.
         25    1    1    2    0    0 -0.29478579046E+03 -0.25112379775E+03 -0.66707290012E+02  0.41235504919E+03  0.12500000000E+03 0.  0.
         21    1    1    2  503  502  0.51380741129E+03 -0.11601676772E+03 -0.11723291064E+03  0.53963089388E+03  0.00000000000E+00 0. -1.
         21    1    1    2  504  503 -0.21902162084E+03  0.36714056547E+03  0.71287696529E+02  0.43341043006E+03  0.00000000000E+00 0. -1.
<mgrwt>
<rscale>  4 0.42165744E+03</rscale>
<asrwt>0</asrwt>
<pdfrwt beam="1">  1       21 0.97903374E-01 0.42668633E+03</pdfrwt>
<pdfrwt beam="2">  1       21 0.11523453E+00 0.42668633E+03</pdfrwt>
<totfact> 0.42411964E+02</totfact>
</mgrwt>
</event>
<event>
 5    0  0.1943430E+001  0.2483248E+03  0.7546771E-02  0.1114368E+00
         21   -1    0    0  504  501  0.00000000000E+00  0.00000000000E+00  0.73539051858E+03  0.73539051858E+03  0.00000000000E+00 0.  1.
         21   -1    0    0  503  502 -0.00000000000E+00 -0.00000000000E+00 -0.10480779433E+03  0.10480779433E+03  0.00000000000E+00 0. -1.
         25    1    1    2    0    0  0.34944994086E+02 -0.22077303703E+03  0.50024876140E+03  0.56199262431E+03  0.12500000000E+03 0.  0.
         21    1    1    2  503  501 -0.67227021511E+02  0.18809803502E+03  0.10909333045E+03  0.22759986368E+03  0.00000000000E+00 0. -1.
         21    1    1    2  504  502  0.32282027425E+02  0.32675002013E+02  0.21240632398E+02  0.50605824921E+02  0.00000000000E+00 0.  1.
<mgrwt>
<rscale>  4 0.24832482E+03</rscale>
<asrwt>0</asrwt>
<pdfrwt beam="1">  1       21 0.11313700E+00 0.24832482E+03</pdfrwt>
<pdfrwt beam="2">  1       21 0.16124277E-01 0.24832482E+03</pdfrwt>
<totfact> 0.20312253E+04</totfact>
</mgrwt>
</event>
<event>
 5    0  0.1943430E+001  0.3029211E+03  0.7546771E-02  0.1083789E+00
         21   -1    0    0  503  501  0.00000000000E+00  0.00000000000E+00  0.26986763181E+03  0.26986763181E+03  0.00000000000E+00 0.  1.
         21   -1    0    0  504  502 -0.00000000000E+00 -0.00000000000E+00 -0.39090423543E+03  0.39090423543E+03  0.00000000000E+00 0.  1.
         25    1    1    2    0    0 -0.28091646148E+03  0.65556562865E+01 -0.72623596871E+02  0.31600035092E+03  0.12500000000E+03 0.  0.
         21    1    1    2  503  502  0.27134099118E+03 -0.30225463151E+02  0.18007339500E+02  0.27361245658E+03  0.00000000000E+00 0.  1.
         21    1    1    2  504  501  0.95754702945E+01  0.23669806864E+02 -0.66420346252E+02  0.71159059750E+02  0.00000000000E+00 0.  1.
<mgrwt>
<rscale>  4 0.30292107E+03</rscale>
<asrwt>0</asrwt>
<pdfrwt beam="1">  1       21 0.41518097E-01 0.30292107E+03</pdfrwt>
<pdfrwt beam="2">  1       21 0.60139113E-01 0.30292107E+03</pdfrwt>
<totfact> 0.13586209E+04</totfact>
</mgrwt>
</event>
<event>
 5    0  0.1943430E+001  0.2234756E+03  0.7546771E-02  0.1131318E+00
         21   -1    0    0  504  501  0.00000000000E+00  0.00000000000E+00  0.99862913381E+03  0.99862913381E+03  0.00000000000E+00 0.  1.
         21   -1    0    0  501  502 -0.00000000000E+00 -0.00000000000E+00 -0.97689371957E+02  0.97689371957E+02  0.00000000000E+00 0.  1.
         25    1    1    2    0    0  0.20997653707E+03  0.27343311291E+02  0.66914578282E+03  0.71289471976E+03  0.12500000000E+03 0.  0.
         21    1    1    2  503  502 -0.95607013539E+02  0.95115883067E+02  0.76944431871E+02  0.15526808379E+03  0.00000000000E+00 0.  1.
         21    1    1    2  504  503 -0.11436952353E+03 -0.12245919436E+03  0.15484954716E+03  0.22815570221E+03  0.00000000000E+00 0.  1.
<mgrwt>
<rscale>  4 0.22347563E+03</rscale>
<asrwt>0</asrwt>
<pdfrwt beam="1">  1       21 0.15363524E+00 0.22347563E+03</pdfrwt>
<pdfrwt beam="2">  1       21 0.15029135E-01 0.22347563E+03</pdfrwt>
<totfact> 0.10726373E+04</totfact>
</mgrwt>
</event>
<event>
 5    0  0.1943430E+001  0.2669653E+03  0.7546771E-02  0.1103029E+00
         21   -1    0    0  503  501  0.00000000000E+00  0.00000000000E+00  0.19757531385E+04  0.19757531385E+04  0.00000000000E+00 0.  1.
         21   -1    0    0  504  502 -0.00000000000E+00 -0.00000000000E+00 -0.58246575837E+02  0.58246575837E+02  0.00000000000E+00 0.  1.
         25    1    1    2    0    0  0.99204280946E+02  0.18978382214E+03  0.58677922590E+03  0.63701981795E+03  0.12500000000E+03 0.  0.
         21    1    1    2  503  502 -0.25003313597E+01  0.36184063629E+02 -0.69315932416E+01  0.36926753208E+02  0.00000000000E+00 0.  1.
         21    1    1    2  504  501 -0.96703949586E+02 -0.22596788577E+03  0.13376589300E+04  0.13600531432E+04  0.00000000000E+00 0.  1.
<mgrwt>
<rscale>  4 0.26696534E+03</rscale>
<asrwt>0</asrwt>
<pdfrwt beam="1">  1       21 0.30396197E+00 0.26696534E+03</pdfrwt>
<pdfrwt beam="2">  1       21 0.89610132E-02 0.26696534E+03</pdfrwt>
<totfact> 0.29500883E+03</totfact>
</mgrwt>
</event>
