<LesHouchesEvents version="3.0">
  <!--
  <scalesfunctionalform>
    muR  H_T/2 := sum_i mT(i)/2, i=final state
    muF1 H_T/2 := sum_i mT(i)/2, i=final state
    muF2 H_T/2 := sum_i mT(i)/2, i=final state
    QES  H_T/2 := sum_i mT(i)/2, i=final state
  </scalesfunctionalform>
HERWIG6   
  -->
  <header>
       67
  </header>
  <init>
   2212   2212 0.65000000D+04 0.65000000D+04 -1 -1   244800   244800 -4   1
 0.60116104D-04 0.28475190D-05 0.15870568D-05     66
  </init>
  <event>
  6     66 0.15870568E-05 0.11242257E+03 0.75467711E-02 0.94968042E-01
        2 -1    0    0  502    0 0.00000000E+00 0.00000000E+00 0.14232338E+04 0.14232338E+04 0.32000000E+00 0.0000E+00 0.9000E+01
       -2 -1    0    0    0  503 0.00000000E+00 0.00000000E+00 -.41150066E+03 0.41150078E+03 0.32000000E+00 0.0000E+00 0.9000E+01
       25  1    1    2    0    0 0.71940418E+02 -.44985117E+03 0.24764318E+03 0.53337946E+03 0.12500000E+03 0.0000E+00 0.9000E+01
        2  1    1    2  502    0 0.68660584E+02 0.11256346E+03 0.88455878E+03 0.89433168E+03 0.32000000E+00 0.0000E+00 0.9000E+01
       -2  1    1    2    0  501 -.11999005E+03 0.30441136E+03 -.56276136E+02 0.33201053E+03 0.32000000E+00 0.0000E+00 0.9000E+01
       21  1    1    2  501  503 -.20610957E+02 0.32876342E+02 -.64192737E+02 0.75012901E+02 0.75000000E+00 0.0000E+00 0.9000E+01
#aMCatNLO 2  0  0  0  0 0.00000000D+00 0.00000000D+00  -5  6  0 0.00000000D+00 0.00000000D+00 0.00000000D+00 0.00000000D+00 0.00000000D+00
  <mgrwgt>
 0.1811203496D-02    1    2    0
 0.695970238096610D+03 0.000000000000000D+00 0.000000000000000D+00 0.695970238096610D+03
 0.695970238096610D+03 0.000000000000000D+00 0.000000000000000D+00 -.695970238096610D+03
 0.471229585740620D+03 0.649105128042046D+02 -.438638654828706D+03 -.990710769843302D+02
 0.448446335688052D+03 0.620207143727083D+02 0.123108437136494D+03 0.426733944849189D+03
 0.472264554764547D+03 -.126931227176913D+03 0.315530217692212D+03 -.327662867864858D+03
 0.000000000000000D+00 -.000000000000000D+00 0.000000000000000D+00 -.000000000000000D+00
 0.698896331401591D+03 0.000000000000000D+00 0.000000000000000D+00 0.698896331401591D+03
 0.837978565529938D+03 0.000000000000000D+00 0.000000000000000D+00 -.837978565529938D+03
 0.482734041590334D+03 0.719719802907103D+02 -.449902334588671D+03 -.990710769843302D+02
 0.446631205524389D+03 0.686462929315649D+02 0.112540039667545D+03 0.426733944849189D+03
 0.463115975260224D+03 -.120007316232047D+03 0.304485953066125D+03 -.327662867864858D+03
 0.144393674556582D+03 -.206109569902278D+02 0.328763418550009D+02 -.139082234128347D+03
0.356372081368D-03 0.000000000000D+00 0.000000000000D+00 0.595399566211D-06 0.649497031055D-08  6 2 -2 25 2 -2 21 2 0.21895875D+00 0.63307718D-01 0.23540322D+06 0.23540322D+06 0.23540322D+06 0.10924301D+01  1  2  1  2  6  2       -2 0.181120349647D-02 0.100000000000D+01
  </mgrwgt>
  </event>
  <event>
  5     66 0.15870568E-05 0.21693425E+02 0.75467711E-02 0.93477742E-01
        2 -1    0    0  502    0 0.00000000E+00 0.00000000E+00 0.79647932E+03 0.79647938E+03 0.32000000E+00 0.0000E+00 0.9000E+01
       -2 -1    0    0    0  501 -.00000000E+00 -.00000000E+00 -.91562768E+03 0.91562773E+03 0.32000000E+00 0.0000E+00 0.9000E+01
       25  1    1    2    0    0 0.51406212E+03 0.89575097E+02 0.50678796E+02 0.53895909E+03 0.12500000E+03 0.0000E+00 0.9000E+01
        2  1    1    2  502    0 -.50454174E+03 -.70085936E+02 0.37207963E+03 0.63080723E+03 0.32000000E+00 0.0000E+00 0.9000E+01
       -2  1    1    2    0  501 -.95203787E+01 -.19489161E+02 -.54190678E+03 0.54234079E+03 0.32000000E+00 0.0000E+00 0.9000E+01
#aMCatNLO 1  0  0  5  2 0.28012267D+02 0.00000000D+00  -5  6  0 0.00000000D+00 0.00000000D+00 0.00000000D+00 0.00000000D+00 0.00000000D+00
  <mgrwgt>
 0.1170000606D-02    6    2    0
 0.853978107080956D+03 0.000000000000000D+00 0.000000000000000D+00 0.853978107080956D+03
 0.853978107080956D+03 -.000000000000000D+00 -.000000000000000D+00 -.853978107080956D+03
 0.543783961898266D+03 0.514022431407945D+03 0.895722048105532D+02 0.885085157067659D+02
 0.658242997664104D+03 -.504500518347932D+03 -.700802096157915D+02 0.416955435485258D+03
 0.505929254599542D+03 -.952191306001373D+01 -.194919951947621D+02 -.505463951192024D+03
 0.000000000000000D+00 0.000000000000000D+00 -.000000000000000D+00 0.000000000000000D+00
 0.853978107080956D+03 0.000000000000000D+00 0.000000000000000D+00 0.853978107080956D+03
 0.853978107080956D+03 -.000000000000000D+00 -.000000000000000D+00 -.853978107080956D+03
 0.543568234684967D+03 0.514000569870333D+03 0.895274527755989D+02 0.873480116031138D+02
 0.657380541405900D+03 -.504526969348421D+03 -.701343565893224D+02 0.415551303024083D+03
 0.270335738912090D+03 -.173684310835072D+02 0.172968246550831D+02 -.269222155833606D+03
 0.236671699158954D+03 0.789483056159476D+01 -.366899208413600D+02 -.233677158793591D+03
0.818892793424D-04 0.000000000000D+00 0.000000000000D+00 0.628972089647D-05 0.000000000000D+00  6 2 -2 25 2 -2 21 0 0.12253529D+00 0.14086581D+00 0.28492681D+06 0.28492681D+06 0.28492681D+06 0.10862121D+01  1  2  2  4  6  5       -2 0.123410780528D-03 0.100000000000D+01
0.594732600144D-04 0.000000000000D+00 -.314476394617D-06 0.628972089647D-05 0.000000000000D+00  6 2 -2 25 2 -2 21 2 0.12253529D+00 0.14086581D+00 0.28492681D+06 0.28492681D+06 0.28492681D+06 0.10862121D+01  1  2  3  4  6  5       -2 0.105749198167D-03 0.100000000000D+01
-.453652988296D-04 0.000000000000D+00 0.000000000000D+00 0.628972089647D-05 0.000000000000D+00  6 2 -2 25 2 -2 21 2 0.12253529D+00 0.14086581D+00 0.28492681D+06 0.28492681D+06 0.28492681D+06 0.10862121D+01  1  2 15  4  6  5       -2 -.806638811234D-04 0.100000000000D+01
-.368698202867D-04 0.000000000000D+00 0.000000000000D+00 0.628972089647D-05 0.000000000000D+00  6 2 -2 25 2 -2 21 2 0.12253529D+00 0.14086581D+00 0.28492681D+06 0.28492681D+06 0.28492681D+06 0.10862121D+01  1  2  4  4  6  5       -2 -.655581000761D-04 0.100000000000D+01
-.109454683355D-02 0.000000000000D+00 0.000000000000D+00 0.628972089647D-05 0.000000000000D+00  6 2 -2 25 2 -2 21 2 0.12253529D+00 0.14086581D+00 0.28492681D+06 0.28492681D+06 0.28492681D+06 0.10862121D+01  1  2  5  4  6  5       -2 -.194620994336D-02 0.100000000000D+01
0.170590992935D-02 0.000000000000D+00 -.000000000000D+00 0.628972089647D-05 0.000000000000D+00  6 2 -2 25 2 -2 21 2 0.12253529D+00 0.14086581D+00 0.28492681D+06 0.28492681D+06 0.28492681D+06 0.10862121D+01  1  2  6  4  6  5       -2 0.303327255190D-02 0.100000000000D+01
  </mgrwgt>
  </event>
  <event>
  5     66 0.15870568E-05 0.20221464E+03 0.75467711E-02 0.90111015E-01
        2 -1    0    0  502    0 0.00000000E+00 0.00000000E+00 0.23791835E+04 0.23791835E+04 0.32000000E+00 0.0000E+00 0.9000E+01
       -2 -1    0    0    0  501 0.00000000E+00 0.00000000E+00 -.34259010E+03 0.34259025E+03 0.32000000E+00 0.0000E+00 0.9000E+01
       25  1    1    2    0    0 -.46800988E+03 -.53711510E+02 0.46275523E+03 0.67207557E+03 0.12500000E+03 0.0000E+00 0.9000E+01
        2  1    1    2  502    0 -.14262486E+03 -.14341001E+03 0.13575926E+04 0.13725764E+04 0.32000000E+00 0.0000E+00 0.9000E+01
       -2  1    1    2    0  501 0.61063474E+03 0.19712152E+03 0.21624562E+03 0.67712181E+03 0.32000000E+00 0.0000E+00 0.9000E+01
#aMCatNLO 1  0  0  1  2 0.16152509D+03 0.00000000D+00  -5  6  0 0.00000000D+00 0.00000000D+00 0.00000000D+00 0.00000000D+00 0.00000000D+00
  <mgrwgt>
 0.1573590286D-03    9    2    0
 0.902820552948117D+03 0.000000000000000D+00 0.000000000000000D+00 0.902820552948117D+03
 0.902820552948117D+03 0.000000000000000D+00 0.000000000000000D+00 -.902820552948117D+03
 0.491226548008050D+03 -.468115773784371D+03 -.537505863764115D+02 -.604732855594640D+02
 0.537631892904453D+03 -.142594314663143D+03 -.143379299967543D+03 0.498153881882487D+03
 0.776782664983732D+03 0.610710088447515D+03 0.197129886343954D+03 -.437680596323023D+03
 0.000000000000000D+00 0.000000000000000D+00 0.000000000000000D+00 0.000000000000000D+00
 0.150664459187239D+04 0.000000000000000D+00 0.000000000000000D+00 0.150664459187239D+04
 0.917292710757917D+03 0.000000000000000D+00 0.000000000000000D+00 -.917292710757917D+03
 0.502812694250725D+03 -.473253512918125D+03 -.978248421617455D+02 -.604732855594640D+02
 0.553995563010153D+03 -.148236443123774D+03 -.191780475362738D+03 0.498153881882487D+03
 0.756043131484819D+03 0.602787605365410D+03 0.129166617535372D+03 -.437680596323023D+03
 0.611085913884612D+03 0.187023506764888D+02 0.160438699989112D+03 0.589351881114474D+03
0.147842932731D-04 0.000000000000D+00 0.000000000000D+00 0.517065076844D-07 0.000000000000D+00  6 2 -2 25 2 -2 21 0 0.36602825D+00 0.52706183D-01 0.44318454D+06 0.44318454D+06 0.44318454D+06 0.10722325D+01  1  2  2  1  6  1        2 0.263189203529D-04 0.100000000000D+01
0.125609236381D-05 0.000000000000D+00 -.567755789624D-07 0.517065076844D-07 0.000000000000D+00  6 2 -2 25 2 -2 21 2 0.36602825D+00 0.52706183D-01 0.44318454D+06 0.44318454D+06 0.44318454D+06 0.10722325D+01  1  2  3  1  6  1        2 0.257079253035D-05 0.100000000000D+01
-.109661210667D-04 0.000000000000D+00 0.000000000000D+00 0.517065076844D-07 0.000000000000D+00  6 2 -2 25 2 -2 21 2 0.36602825D+00 0.52706183D-01 0.44318454D+06 0.44318454D+06 0.44318454D+06 0.10722325D+01  1  2 15  1  6  1        2 -.224439085353D-04 0.100000000000D+01
0.885123064686D-08 0.000000000000D+00 0.000000000000D+00 0.517065076844D-07 0.000000000000D+00  6 2 -2 25 2 -2 21 2 0.61205989D+00 0.52706183D-01 0.57725891D+06 0.57725891D+06 0.57725891D+06 0.10641280D+01  1  2 12  1  6  1        2 0.146281314848D-08 0.100000000000D+01
-.280458225384D-04 0.000000000000D+00 0.000000000000D+00 0.517065076844D-07 0.000000000000D+00  6 2 -2 25 2 -2 21 2 0.36602825D+00 0.52706183D-01 0.44318454D+06 0.44318454D+06 0.44318454D+06 0.10722325D+01  1  2  4  1  6  1        2 -.574002304023D-04 0.100000000000D+01
-.122720583084D-03 0.000000000000D+00 -.713521291740D-05 0.517065076844D-07 0.000000000000D+00  6 2 -2 25 2 -2 21 2 0.61229473D+00 0.52706183D-01 0.44318454D+06 0.44318454D+06 0.44318454D+06 0.10722325D+01  1  2  5  1  6  1        2 -.210504645662D-04 0.100000000000D+01
0.112077653591D-03 0.000000000000D+00 0.628485669735D-05 0.517065076844D-07 0.000000000000D+00  6 2 -2 25 2 -2 21 2 0.36602825D+00 0.52706183D-01 0.44318454D+06 0.44318454D+06 0.44318454D+06 0.10722325D+01  1  2  6  1  6  1        2 0.229384719606D-03 0.100000000000D+01
0.510268519786D-09 0.000000000000D+00 0.000000000000D+00 0.517065076844D-07 0.000000000000D+00  6 21 -2 25 2 -2 -2 2 0.61205989D+00 0.52706183D-01 0.57725891D+06 0.57725891D+06 0.57725891D+06 0.10641280D+01  1  2 12  5  6  1        2 0.161073124576D-11 0.100000000000D+01
-.674681203110D-05 0.000000000000D+00 -.411587712540D-06 0.517065076844D-07 0.000000000000D+00  6 21 -2 25 2 -2 -2 2 0.61229473D+00 0.52706183D-01 0.44318454D+06 0.44318454D+06 0.44318454D+06 0.10722325D+01  1  2  5  5  6  1        2 -.222648133210D-07 0.100000000000D+01
  </mgrwgt>
  </event>
  <event>
  5     66 0.15870568E-05 0.13462224E+03 0.75467711E-02 0.90918340E-01
        2 -1    0    0  502    0 0.00000000E+00 0.00000000E+00 0.12500091E+04 0.12500092E+04 0.32000000E+00 0.0000E+00 0.9000E+01
       -2 -1    0    0    0  501 0.00000000E+00 0.00000000E+00 -.47238515E+03 0.47238525E+03 0.32000000E+00 0.0000E+00 0.9000E+01
       25  1    1    2    0    0 -.43882222E+03 0.21103976E+03 0.59394350E+03 0.77813663E+03 0.12500000E+03 0.0000E+00 0.9000E+01
        2  1    1    2  502    0 0.31060150E+03 -.25196975E+03 0.47642895E+03 0.62205039E+03 0.32000000E+00 0.0000E+00 0.9000E+01
       -2  1    1    2    0  501 0.12822072E+03 0.40929992E+02 -.29274849E+03 0.32220738E+03 0.32000000E+00 0.0000E+00 0.9000E+01
#aMCatNLO 1  0  0  2  2 0.41954842D+03 0.00000000D+00  -5  6  0 0.00000000D+00 0.00000000D+00 0.00000000D+00 0.00000000D+00 0.00000000D+00
  <mgrwgt>
 0.5719948331D-03    4    2    0
 0.768430779959947D+03 0.000000000000000D+00 0.000000000000000D+00 0.768430779959947D+03
 0.768430779959947D+03 0.000000000000000D+00 0.000000000000000D+00 -.768430779959947D+03
 0.571559984893240D+03 -.438772003136561D+03 0.210971850580175D+03 0.272076871228459D+03
 0.455967817070757D+03 0.310524411958248D+03 -.251907211698547D+03 0.219143780373797D+03
 0.509333757955897D+03 0.128247591178312D+03 0.409353611183715D+02 -.491220651602256D+03
 0.000000000000000D+00 -.000000000000000D+00 -.000000000000000D+00 0.000000000000000D+00
 0.997446590066526D+03 0.000000000000000D+00 0.000000000000000D+00 0.997446590066526D+03
 0.879848103527659D+03 0.000000000000000D+00 0.000000000000000D+00 -.879848103527659D+03
 0.587966330180602D+03 -.398535292799255D+03 0.311806353306006D+03 0.272076871228459D+03
 0.441574531375521D+03 0.341670019453666D+03 -.173855307912999D+03 0.219143780373797D+03
 0.534504846599884D+03 0.164469823502323D+03 0.131709451579358D+03 -.491220651602256D+03
 0.313248985438178D+03 -.107604550156733D+03 -.269660496972365D+03 0.117598486538867D+03
0.335652424670D-03 0.000000000000D+00 0.000000000000D+00 0.252783561816D-06 0.000000000000D+00  6 2 -2 25 2 -2 21 0 0.19230911D+00 0.72674649D-01 0.26890630D+06 0.26890630D+06 0.26890630D+06 0.10880852D+01  1  2  2  2  6  2       -2 0.132243067521D-02 0.100000000000D+01
0.441343476601D-04 0.000000000000D+00 -.128899369004D-05 0.252783561816D-06 0.000000000000D+00  6 2 -2 25 2 -2 21 2 0.19230911D+00 0.72674649D-01 0.26890630D+06 0.26890630D+06 0.26890630D+06 0.10880852D+01  1  2  3  2  6  2       -2 0.205866493760D-03 0.100000000000D+01
-.178583554944D-03 0.000000000000D+00 0.000000000000D+00 0.252783561816D-06 0.000000000000D+00  6 2 -2 25 2 -2 21 2 0.19230911D+00 0.72674649D-01 0.26890630D+06 0.26890630D+06 0.26890630D+06 0.10880852D+01  1  2 15  2  6  2       -2 -.833010393235D-03 0.100000000000D+01
-.264317391275D-04 0.000000000000D+00 0.000000000000D+00 0.252783561816D-06 0.000000000000D+00  6 2 -2 25 2 -2 21 2 0.19230911D+00 0.72674649D-01 0.26890630D+06 0.26890630D+06 0.26890630D+06 0.10880852D+01  1  2  4  2  6  2       -2 -.123291942594D-03 0.100000000000D+01
  </mgrwgt>
  </event>
  <event>
  5     66 0.15870568E-05 0.92408367E+02 0.75467711E-02 0.94878288E-01
        2 -1    0    0  502    0 0.00000000E+00 0.00000000E+00 0.20210250E+04 0.20210251E+04 0.32000000E+00 0.0000E+00 0.9000E+01
       -2 -1    0    0    0  501 0.00000000E+00 0.00000000E+00 -.55702380E+03 0.55702389E+03 0.32000000E+00 0.0000E+00 0.9000E+01
       25  1    1    2    0    0 -.28183344E+03 0.35457834E+03 0.75744720E+03 0.89135130E+03 0.12500000E+03 0.0000E+00 0.9000E+01
        2  1    1    2  502    0 0.92427566E+02 0.51719761E+00 0.11117591E+04 0.11155947E+04 0.32000000E+00 0.0000E+00 0.9000E+01
       -2  1    1    2    0  501 0.18940588E+03 -.35509553E+03 -.40520502E+03 0.57110300E+03 0.32000000E+00 0.0000E+00 0.9000E+01
#aMCatNLO 1  0  0  4  1 0.26753672D+02 0.00000000D+00  -5  6  0 0.00000000D+00 0.00000000D+00 0.00000000D+00 0.00000000D+00 0.00000000D+00
  <mgrwgt>
 0.1803611633D-02    8    2    0
 0.106101800023817D+04 0.000000000000000D+00 0.000000000000000D+00 0.106101800023817D+04
 0.106101800023817D+04 -.000000000000000D+00 -.000000000000000D+00 -.106101800023817D+04
 0.560438776829012D+03 -.281842624544198D+03 0.354628608120643D+03 0.305401224401693D+03
 0.588190749382413D+03 0.924069201575928D+02 0.517082086319061D+00 0.580886435882393D+03
 0.973406474264922D+03 0.189435704386605D+03 -.355145690206962D+03 -.886287660284085D+03
 0.000000000000000D+00 0.000000000000000D+00 0.000000000000000D+00 0.000000000000000D+00
 0.106101800023817D+04 0.000000000000000D+00 0.000000000000000D+00 0.106101800023817D+04
 0.106101800023817D+04 -.000000000000000D+00 -.000000000000000D+00 -.106101800023817D+04
 0.560738768532065D+03 -.281740207007985D+03 0.354629181219207D+03 0.306045039361447D+03
 0.326906494691288D+03 0.439323526077941D+02 0.260131668877403D+02 0.322894905215552D+03
 0.972423510479764D+03 0.189613452428162D+03 -.355144695580932D+03 -.885170304287705D+03
 0.261967226773230D+03 0.481944019720293D+02 -.254976525260161D+02 0.256230359710706D+03
0.738092534385D-04 0.000000000000D+00 0.000000000000D+00 0.134393970988D-04 0.000000000000D+00  6 2 -2 25 2 -2 21 0 0.31092694D+00 0.85695978D-01 0.23272671D+06 0.23272671D+06 0.23272671D+06 0.10928060D+01  1  2  2  3  6  4        2 0.764804188016D-04 0.100000000000D+01
0.140244108371D-04 0.000000000000D+00 -.283446967627D-06 0.134393970988D-04 0.000000000000D+00  6 2 -2 25 2 -2 21 2 0.31092694D+00 0.85695978D-01 0.23272671D+06 0.23272671D+06 0.23272671D+06 0.10928060D+01  1  2  3  3  6  4        2 0.173544249392D-04 0.100000000000D+01
-.468087520447D-04 0.000000000000D+00 0.000000000000D+00 0.134393970988D-04 0.000000000000D+00  6 2 -2 25 2 -2 21 2 0.31092694D+00 0.85695978D-01 0.23272671D+06 0.23272671D+06 0.23272671D+06 0.10928060D+01  1  2 15  3  6  4        2 -.579232156912D-04 0.100000000000D+01
0.294878181434D-09 0.000000000000D+00 0.000000000000D+00 0.134393970988D-04 0.000000000000D+00  6 2 -2 25 2 -2 21 2 0.31092694D+00 0.85695978D-01 0.23913492D+06 0.23913492D+06 0.23913492D+06 0.10919138D+01  1  2 12  3  6  4        2 0.363653397800D-09 0.100000000000D+01
0.130919896048D-02 0.000000000000D+00 0.000000000000D+00 0.134393970988D-04 0.000000000000D+00  6 2 -2 25 2 -2 21 2 0.31092694D+00 0.85695978D-01 0.23913492D+06 0.23913492D+06 0.23913492D+06 0.10919138D+01  1  2 12  3  6  4        2 0.161454688868D-02 0.100000000000D+01
-.777293066087D-03 0.000000000000D+00 0.000000000000D+00 0.134393970988D-04 0.000000000000D+00  6 2 -2 25 2 -2 21 2 0.31092694D+00 0.85695978D-01 0.23272671D+06 0.23272671D+06 0.23272671D+06 0.10928060D+01  1  2  4  3  6  4        2 -.961856745918D-03 0.100000000000D+01
-.170167313225D-02 0.000000000000D+00 0.000000000000D+00 0.134393970988D-04 0.000000000000D+00  6 2 -2 25 2 -2 21 2 0.31092694D+00 0.85695978D-01 0.23272671D+06 0.23272671D+06 0.23272671D+06 0.10928060D+01  1  2  5  3  6  4        2 -.210572543744D-02 0.100000000000D+01
0.260273158545D-02 0.000000000000D+00 -.000000000000D+00 0.134393970988D-04 0.000000000000D+00  6 2 -2 25 2 -2 21 2 0.31092694D+00 0.85695978D-01 0.23272671D+06 0.23272671D+06 0.23272671D+06 0.10928060D+01  1  2  6  3  6  4        2 0.322073493577D-02 0.100000000000D+01
  </mgrwgt>
  </event>
  <event>
  6     66 0.15870568E-05 0.46039803E+02 0.75467711E-02 0.92776118E-01
        2 -1    0    0  502    0 0.00000000E+00 0.00000000E+00 0.17775315E+04 0.17775316E+04 0.32000000E+00 0.0000E+00 0.9000E+01
       -2 -1    0    0    0  501 0.00000000E+00 0.00000000E+00 -.58259194E+03 0.58259203E+03 0.32000000E+00 0.0000E+00 0.9000E+01
       25  1    1    2    0    0 -.37862842E+03 -.44087596E+03 0.10172723E+04 0.11782186E+04 0.12500000E+03 0.0000E+00 0.9000E+01
        2  1    1    2  503    0 0.44298657E+02 0.20301457E+02 0.41049016E+03 0.41337247E+03 0.32000000E+00 0.0000E+00 0.9000E+01
       -2  1    1    2    0  501 0.33252868E+03 0.41572309E+03 -.35909955E+03 0.64214764E+03 0.32000000E+00 0.0000E+00 0.9000E+01
       21  1    1    2  502  503 0.18010793E+01 0.48514155E+01 0.12627665E+03 0.12638487E+03 0.75000000E+00 0.0000E+00 0.9000E+01
#aMCatNLO 2  0  0  4  1 0.90501743D+01 0.00000000D+00  -5  6  0 0.00000000D+00 0.00000000D+00 0.00000000D+00 0.00000000D+00 0.00000000D+00
  <mgrwgt>
 0.7077401463D-03    6    2    0
 0.101763239025400D+04 0.000000000000000D+00 0.000000000000000D+00 0.101763239025400D+04
 0.101763239025400D+04 -.000000000000000D+00 -.000000000000000D+00 -.101763239025400D+04
 0.769465306233460D+03 -.378751089559563D+03 -.441066266224626D+03 0.488323682052247D+03
 0.309915440657920D+03 0.460838795322469D+02 0.251442214916651D+02 0.305436776651124D+03
 0.955884033616626D+03 0.332667210027316D+03 0.415922044732961D+03 -.793760458703371D+03
 0.000000000000000D+00 0.000000000000000D+00 0.000000000000000D+00 0.000000000000000D+00
 0.101763239025400D+04 0.000000000000000D+00 0.000000000000000D+00 0.101763239025400D+04
 0.101763239025400D+04 -.000000000000000D+00 -.000000000000000D+00 -.101763239025400D+04
 0.769607029162532D+03 -.378709432572213D+03 -.441043537397817D+03 0.488599778076937D+03
 0.237699552884014D+03 0.442041442139502D+02 0.202491045062294D+02 0.232673687472968D+03
 0.955629602382263D+03 0.332718947621139D+03 0.415950273726087D+03 -.793417549988880D+03
 0.723285960791974D+02 0.178634073712317D+01 0.484415916549996D+01 0.721440844389745D+02
-.473994143926D-09 0.000000000000D+00 0.000000000000D+00 0.369844424402D-05 0.000000000000D+00  6 2 -2 25 2 -2 21 2 0.27346640D+00 0.89629538D-01 0.34871880D+06 0.34871880D+06 0.34871880D+06 0.10797495D+01  1  2 13  3  6  4        2 -.683217296208D-09 0.100000000000D+01
-.283072159393D-03 0.000000000000D+00 0.000000000000D+00 0.369844424402D-05 0.000000000000D+00  6 2 -2 25 2 -2 21 2 0.27346640D+00 0.89629538D-01 0.34871880D+06 0.34871880D+06 0.34871880D+06 0.10797495D+01  1  2 13  3  6  4        2 -.408021486870D-03 0.100000000000D+01
-.123473020411D-03 0.000000000000D+00 0.000000000000D+00 0.369844424402D-05 0.000000000000D+00  6 2 -2 25 2 -2 21 2 0.27346640D+00 0.89629538D-01 0.34795265D+06 0.34795265D+06 0.34795265D+06 0.10798193D+01  1  2  8  3  6  4        2 -.178021234622D-03 0.100000000000D+01
-.515165294343D-04 0.000000000000D+00 0.000000000000D+00 0.369844424402D-05 0.000000000000D+00  6 2 -2 25 2 -2 21 2 0.27346640D+00 0.89629538D-01 0.34795265D+06 0.34795265D+06 0.34795265D+06 0.10798193D+01  1  2  9  3  6  4        2 -.742756283340D-04 0.100000000000D+01
0.648943914277D-04 0.000000000000D+00 0.000000000000D+00 0.369844424402D-05 0.000000000000D+00  6 2 -2 25 2 -2 21 2 0.27346640D+00 0.89629538D-01 0.34795265D+06 0.34795265D+06 0.34795265D+06 0.10798193D+01  1  2 10  3  6  4        2 0.935635950553D-04 0.100000000000D+01
0.884203966648D-03 0.000000000000D+00 0.000000000000D+00 0.369844424402D-05 0.954231306612D-06  6 2 -2 25 2 -2 21 2 0.27346640D+00 0.89629538D-01 0.34871880D+06 0.34871880D+06 0.34871880D+06 0.10797495D+01  1  2  1  3  6  4        2 0.127449558424D-02 0.100000000000D+01
  </mgrwgt>
  </event>
  <event>
  5     66 -.15870568E-05 0.16091556E+03 0.75467711E-02 0.90242289E-01
        2 -1    0    0  502    0 0.00000000E+00 0.00000000E+00 0.86684531E+03 0.86684537E+03 0.32000000E+00 0.0000E+00 0.9000E+01
       -2 -1    0    0    0  501 -.00000000E+00 -.00000000E+00 -.13161331E+04 0.13161332E+04 0.32000000E+00 0.0000E+00 0.9000E+01
       25  1    1    2    0    0 0.34472986E+03 0.65874488E+03 0.15308425E+03 0.76931352E+03 0.12500000E+03 0.0000E+00 0.9000E+01
        2  1    1    2  502    0 -.25187747E+03 -.52735163E+03 0.18267494E+03 0.61230077E+03 0.32000000E+00 0.0000E+00 0.9000E+01
       -2  1    1    2    0  501 -.92852393E+02 -.13139325E+03 -.78504702E+03 0.80136426E+03 0.32000000E+00 0.0000E+00 0.9000E+01
#aMCatNLO 1  0  0  5  2 0.66415547D+01 0.00000000D+00  -5  6  0 0.00000000D+00 0.00000000D+00 0.00000000D+00 0.00000000D+00 0.00000000D+00
  <mgrwgt>
 -.1283698505D-03    9    2    0
 0.106812169227901D+04 0.000000000000000D+00 0.000000000000000D+00 0.106812169227901D+04
 0.106812169227901D+04 -.000000000000000D+00 -.000000000000000D+00 -.106812169227901D+04
 0.818338105350516D+03 0.344702702561866D+03 0.658679390214413D+03 0.318392466025795D+03
 0.664007139676479D+03 -.251836267011207D+03 -.527265372365512D+03 0.315396897992764D+03
 0.653898139531016D+03 -.928664355506581D+02 -.131414017848902D+03 -.633789364018558D+03
 0.000000000000000D+00 0.000000000000000D+00 0.000000000000000D+00 -.000000000000000D+00
 0.106812169227901D+04 0.000000000000000D+00 0.000000000000000D+00 0.106812169227901D+04
 0.106812169227901D+04 -.000000000000000D+00 -.000000000000000D+00 -.106812169227901D+04
 0.818253389534544D+03 0.344682604622216D+03 0.658650949895969D+03 0.318255302794396D+03
 0.663978793265686D+03 -.251852575162154D+03 -.527288449805997D+03 0.315285599087458D+03
 0.587385828292021D+03 -.809766638683286D+02 -.124149884840789D+03 -.568376369390105D+03
 0.666253734657611D+02 -.118533655917337D+02 -.721261524918277D+01 -.651645324917481D+02
0.217484462473D-05 0.000000000000D+00 0.000000000000D+00 0.108984902702D-06 0.000000000000D+00  6 2 -2 25 2 -2 21 0 0.13336083D+00 0.20248203D+00 0.56182145D+06 0.56182145D+06 0.56182145D+06 0.10649506D+01  1  2  2  4  6  5       -2 0.982969289993D-06 0.100000000000D+01
0.352483018376D-06 0.000000000000D+00 -.835197600872D-08 0.108984902702D-06 0.000000000000D+00  6 2 -2 25 2 -2 21 2 0.13336083D+00 0.20248203D+00 0.56182145D+06 0.56182145D+06 0.56182145D+06 0.10649506D+01  1  2  3  4  6  5       -2 0.180679465976D-06 0.100000000000D+01
-.125927037813D-05 0.000000000000D+00 0.000000000000D+00 0.108984902702D-06 0.000000000000D+00  6 2 -2 25 2 -2 21 2 0.13336083D+00 0.20248203D+00 0.56182145D+06 0.56182145D+06 0.56182145D+06 0.10649506D+01  1  2 15  4  6  5       -2 -.645490101873D-06 0.100000000000D+01
0.284097569796D-07 0.000000000000D+00 0.000000000000D+00 0.108984902702D-06 0.000000000000D+00  6 2 -2 25 2 -2 21 2 0.13336083D+00 0.20248203D+00 0.56270458D+06 0.56270458D+06 0.56270458D+06 0.10649028D+01  1  2 12  4  6  5       -2 0.145599117637D-07 0.100000000000D+01
0.557613969365D-03 0.000000000000D+00 0.000000000000D+00 0.108984902702D-06 0.000000000000D+00  6 2 -2 25 2 -2 21 2 0.13336083D+00 0.20248203D+00 0.56270458D+06 0.56270458D+06 0.56270458D+06 0.10649028D+01  1  2 12  4  6  5       -2 0.285775418565D-03 0.100000000000D+01
-.974485353093D-03 0.000000000000D+00 0.000000000000D+00 0.108984902702D-06 0.000000000000D+00  6 2 -2 25 2 -2 21 2 0.13336083D+00 0.20248203D+00 0.56182145D+06 0.56182145D+06 0.56182145D+06 0.10649506D+01  1  2  4  4  6  5       -2 -.499511987866D-03 0.100000000000D+01
-.661688262256D-03 0.000000000000D+00 0.000000000000D+00 0.108984902702D-06 0.000000000000D+00  6 2 -2 25 2 -2 21 2 0.13336083D+00 0.20248203D+00 0.56182145D+06 0.56182145D+06 0.56182145D+06 0.10649506D+01  1  2  5  4  6  5       -2 -.339175153509D-03 0.100000000000D+01
0.732522281200D-03 0.000000000000D+00 -.000000000000D+00 0.108984902702D-06 0.000000000000D+00  6 2 -2 25 2 -2 21 2 0.13336083D+00 0.20248203D+00 0.56182145D+06 0.56182145D+06 0.56182145D+06 0.10649506D+01  1  2  6  4  6  5       -2 0.375484002584D-03 0.100000000000D+01
0.946837985965D-04 0.000000000000D+00 0.000000000000D+00 0.108984902702D-06 0.168974069703D-07  6 2 -2 25 2 -2 21 2 0.13336083D+00 0.20248203D+00 0.56270458D+06 0.56270458D+06 0.56270458D+06 0.10649028D+01  1  2 11  4  6  5       -2 0.485251512010D-04 0.100000000000D+01
  </mgrwgt>
  </event>
  <event>
  5     66 -.15870568E-05 0.28752104E+02 0.75467711E-02 0.94897401E-01
        2 -1    0    0  502    0 0.00000000E+00 0.00000000E+00 0.24230867E+04 0.24230867E+04 0.32000000E+00 0.0000E+00 0.9000E+01
       -2 -1    0    0    0  501 0.00000000E+00 0.00000000E+00 -.34899527E+03 0.34899541E+03 0.32000000E+00 0.0000E+00 0.9000E+01
       25  1    1    2    0    0 0.44390372E+03 -.11727474E+03 0.13728148E+04 0.14529450E+04 0.12500000E+03 0.0000E+00 0.9000E+01
        2  1    1    2  502    0 -.69685388E+01 0.27913164E+02 0.84887901E+03 0.84936646E+03 0.32000000E+00 0.0000E+00 0.9000E+01
       -2  1    1    2    0  501 -.43693518E+03 0.89361577E+02 -.14760240E+03 0.46977059E+03 0.32000000E+00 0.0000E+00 0.9000E+01
#aMCatNLO 1  0  0  2  5 0.23398106D+02 0.00000000D+00  -5  6  0 0.00000000D+00 0.00000000D+00 0.00000000D+00 0.00000000D+00 0.00000000D+00
  <mgrwgt>
 -.8062798978D-03   11    4    0
 0.919590128866712D+03 0.000000000000000D+00 0.000000000000000D+00 0.919590128866712D+03
 0.919590128866712D+03 0.000000000000000D+00 0.000000000000000D+00 -.919590128866712D+03
 0.641947381302344D+03 0.443974075886196D+03 -.117274904334954D+03 0.430819053797719D+03
 0.322694824064485D+03 -.696423630728758D+01 0.278959295903082D+02 0.321411365702829D+03
 0.874538052366596D+03 -.437009839578909D+03 0.893789747446454D+02 -.752230419500548D+03
 0.000000000000000D+00 -.000000000000000D+00 -.000000000000000D+00 -.000000000000000D+00
 0.920475038651392D+03 0.000000000000000D+00 0.000000000000000D+00 0.920475038651392D+03
 0.108853399921649D+04 0.000000000000000D+00 0.000000000000000D+00 -.108853399921649D+04
 0.643071068974504D+03 0.447475892835274D+03 -.109889344197351D+03 0.430819053797719D+03
 0.323003651997472D+03 -.520463677237014D+01 0.316070396717909D+02 0.321411365702829D+03
 0.873254366439280D+03 -.432246912545195D+03 0.994242982295767D+02 -.752230419500548D+03
 0.169679950456625D+03 -.100243435177087D+02 -.211419937040162D+02 -.168058960565098D+03
 0.919590128866712D+03 0.000000000000000D+00 0.000000000000000D+00 0.919590128866712D+03
 0.919590128866712D+03 0.000000000000000D+00 0.000000000000000D+00 -.919590128866712D+03
 0.641947381302344D+03 0.443974075886196D+03 -.117274904334954D+03 0.430819053797719D+03
 0.322694824064485D+03 -.696423630728758D+01 0.278959295903082D+02 0.321411365702829D+03
 0.000000000000000D+00 -.000000000000000D+00 -.000000000000000D+00 -.000000000000000D+00
 0.874538052366596D+03 -.437009839578909D+03 0.893789747446454D+02 -.752230419500548D+03
 0.920475038651392D+03 0.000000000000000D+00 0.000000000000000D+00 0.920475038651392D+03
 0.108853399921649D+04 0.000000000000000D+00 0.000000000000000D+00 -.108853399921649D+04
 0.643071068974504D+03 0.447475892835274D+03 -.109889344197351D+03 0.430819053797719D+03
 0.323003651997472D+03 -.520463677237014D+01 0.316070396717909D+02 0.321411365702829D+03
 0.169679950456625D+03 -.100243435177087D+02 -.211419937040162D+02 -.168058960565098D+03
 0.873254366439280D+03 -.432246912545195D+03 0.994242982295767D+02 -.752230419500548D+03
0.374218689511D-04 0.000000000000D+00 0.000000000000D+00 0.166256108478D-04 0.000000000000D+00  6 2 -2 25 2 -2 21 0 0.37278257D+00 0.53691592D-01 0.22596689D+06 0.22596689D+06 0.22596689D+06 0.10937768D+01  1  2  2  2  6  2       -2 0.632157326489D-04 0.100000000000D+01
0.150336451502D-04 0.000000000000D+00 -.143709830177D-06 0.166256108478D-04 0.000000000000D+00  6 2 -2 25 2 -2 21 2 0.37278257D+00 0.53691592D-01 0.22596689D+06 0.22596689D+06 0.22596689D+06 0.10937768D+01  1  2  3  2  6  2       -2 0.303823519746D-04 0.100000000000D+01
-.251575554159D-04 0.000000000000D+00 0.000000000000D+00 0.166256108478D-04 0.000000000000D+00  6 2 -2 25 2 -2 21 2 0.37278257D+00 0.53691592D-01 0.22596689D+06 0.22596689D+06 0.22596689D+06 0.10937768D+01  1  2 15  2  6  2       -2 -.508423403525D-04 0.100000000000D+01
0.209085075505D-08 0.000000000000D+00 0.000000000000D+00 0.166256108478D-04 0.000000000000D+00  6 2 -2 25 2 -2 21 2 0.37278257D+00 0.63578476D-01 0.23833472D+06 0.23833472D+06 0.23833472D+06 0.10920238D+01  1  2 12  2  6  2       -2 0.296476518599D-08 0.100000000000D+01
0.520780526903D-02 0.000000000000D+00 0.000000000000D+00 0.166256108478D-04 0.000000000000D+00  6 2 -2 25 2 -2 21 2 0.37278257D+00 0.63968889D-01 0.23833472D+06 0.23833472D+06 0.23833472D+06 0.10920238D+01  1  2 12  2  6  2       -2 0.728995137640D-02 0.100000000000D+01
-.553480522085D-02 0.000000000000D+00 0.000000000000D+00 0.166256108478D-04 0.000000000000D+00  6 2 -2 25 2 -2 21 2 0.37278257D+00 0.53691592D-01 0.22596689D+06 0.22596689D+06 0.22596689D+06 0.10937768D+01  1  2  4  2  6  2       -2 -.111856039337D-01 0.100000000000D+01
-.552134402239D-02 0.000000000000D+00 -.612677827533D-04 0.166256108478D-04 0.000000000000D+00  6 2 -2 25 2 -2 21 2 0.37278257D+00 0.63582660D-01 0.22596689D+06 0.22596689D+06 0.22596689D+06 0.10937768D+01  1  2  5  2  6  2       -2 -.788146899696D-02 0.100000000000D+01
0.545441346068D-02 0.000000000000D+00 0.604022873340D-04 0.166256108478D-04 0.000000000000D+00  6 2 -2 25 2 -2 21 2 0.37278257D+00 0.53691592D-01 0.22596689D+06 0.22596689D+06 0.22596689D+06 0.10937768D+01  1  2  6  2  6  2       -2 0.110231356349D-01 0.100000000000D+01
0.524780668584D-10 0.000000000000D+00 0.000000000000D+00 0.166256108478D-04 0.000000000000D+00  6 2 21 25 2 2 -2 2 0.37278257D+00 0.63578476D-01 0.23833472D+06 0.23833472D+06 0.23833472D+06 0.10920238D+01  3  4 12  6  5  2       -2 0.747857277516D-09 0.100000000000D+01
0.134432459791D-03 0.000000000000D+00 0.000000000000D+00 0.166256108478D-04 0.000000000000D+00  6 2 21 25 2 2 -2 2 0.37278257D+00 0.63968889D-01 0.23833472D+06 0.23833472D+06 0.23833472D+06 0.10920238D+01  3  4 12  6  5  2       -2 0.188915955370D-02 0.100000000000D+01
-.138096003938D-03 0.000000000000D+00 -.153822838996D-05 0.166256108478D-04 0.000000000000D+00  6 2 21 25 2 2 -2 2 0.37278257D+00 0.63582660D-01 0.22596689D+06 0.22596689D+06 0.22596689D+06 0.10937768D+01  3  4  5  6  5  2       -2 -.198421298894D-02 0.100000000000D+01
  </mgrwgt>
  </event>
  <event>
  5     66 0.15870568E-05 0.13713121E+03 0.75467711E-02 0.90229220E-01
        2 -1    0    0  502    0 0.00000000E+00 0.00000000E+00 0.11340328E+04 0.11340328E+04 0.32000000E+00 0.0000E+00 0.9000E+01
       -2 -1    0    0    0  501 0.00000000E+00 0.00000000E+00 -.37249661E+04 0.37249661E+04 0.32000000E+00 0.0000E+00 0.9000E+01
       25  1    1    2    0    0 0.40776891E+03 -.49841858E+03 0.32255816E+03 0.73100296E+03 0.12500000E+03 0.0000E+00 0.9000E+01
        2  1    1    2  502    0 -.53949758E+03 0.46034272E+03 0.39827927E+03 0.81338769E+03 0.32000000E+00 0.0000E+00 0.9000E+01
       -2  1    1    2    0  501 0.13172867E+03 0.38075857E+02 -.33117708E+04 0.33146083E+04 0.32000000E+00 0.0000E+00 0.9000E+01
#aMCatNLO 1  0  0  1  2 0.18235412D+03 0.00000000D+00  -5  6  0 0.00000000D+00 0.00000000D+00 0.00000000D+00 0.00000000D+00 0.00000000D+00
  <mgrwgt>
 0.7153974314D-05    1    2    0
 0.205529408257562D+04 0.000000000000000D+00 0.000000000000000D+00 0.205529408257562D+04
 0.205529408257562D+04 0.000000000000000D+00 0.000000000000000D+00 -.205529408257562D+04
 0.106748095326472D+04 0.407703594757105D+03 -.498374090135978D+03 0.842194532567278D+03
 0.121239337924762D+04 -.539441839074395D+03 0.460295162469972D+03 0.983376108976741D+03
 0.183071383263891D+04 0.131738244317290D+03 0.380789276660066D+02 -.182557064154402D+04
 0.000000000000000D+00 0.000000000000000D+00 0.000000000000000D+00 -.000000000000000D+00
 0.245436860625263D+04 0.000000000000000D+00 0.000000000000000D+00 0.245436860625263D+04
 0.275862695343592D+04 0.000000000000000D+00 0.000000000000000D+00 -.275862695343592D+04
 0.107747777799592D+04 0.201612728876129D+03 -.628803656910423D+03 0.842194532567278D+03
 0.129246114010590D+04 -.780112034391415D+03 0.307981234453148D+03 0.983376108976741D+03
 0.184833482905738D+04 -.221750292901147D+03 -.185634804488237D+03 -.182557064154402D+04
 0.994721812529366D+03 0.800249598416433D+03 0.506457226945512D+03 -.304258347183289D+03
0.160346707881D-01 0.000000000000D+00 0.000000000000D+00 0.507360984180D-05 0.000000000000D+00  6 2 -2 25 2 -2 21 2 0.17446658D+00 0.57307172D+00 0.56413504D+06 0.56413504D+06 0.56413504D+06 0.10648257D+01  1  2 14  1  6  1        2 0.715397431352D-05 0.100000000000D+01
  </mgrwgt>
  </event>
  <event>
  6     66 0.15870568E-05 0.63258348E+02 0.75467711E-02 0.94325354E-01
        2 -1    0    0  502    0 0.00000000E+00 0.00000000E+00 0.25291422E+04 0.25291423E+04 0.32000000E+00 0.0000E+00 0.9000E+01
       -2 -1    0    0    0  501 0.00000000E+00 0.00000000E+00 -.77286364E+03 0.77286370E+03 0.32000000E+00 0.0000E+00 0.9000E+01
       25  1    1    2    0    0 -.42864645E+03 0.19337722E+03 0.98030428E+03 0.10944195E+04 0.12500000E+03 0.0000E+00 0.9000E+01
        2  1    1    2  502    0 0.44693610E+02 0.61038275E+02 0.14150869E+04 0.14171077E+04 0.32000000E+00 0.0000E+00 0.9000E+01
       -2  1    1    2    0  503 0.32746769E+03 -.24091949E+03 -.54584719E+03 0.68060748E+03 0.32000000E+00 0.0000E+00 0.9000E+01
       21  1    1    2  503  501 0.56485146E+02 -.13496004E+02 -.93265369E+02 0.10987131E+03 0.75000000E+00 0.0000E+00 0.9000E+01
#aMCatNLO 2  0  0  5  2 0.22650182D+02 0.00000000D+00  -5  6  0 0.00000000D+00 0.00000000D+00 0.00000000D+00 0.00000000D+00 0.00000000D+00
  <mgrwgt>
 0.2007462040D-02    3    2    0
 0.139809949661963D+04 0.000000000000000D+00 0.000000000000000D+00 0.139809949661963D+04
 0.139809949661963D+04 -.000000000000000D+00 -.000000000000000D+00 -.139809949661963D+04
 0.677111157725548D+03 -.428787494927546D+03 0.193482256863678D+03 0.470702050546977D+03
 0.784944030604493D+03 0.445586083153571D+02 0.611146932345853D+02 0.781291658650896D+03
 0.133414380490921D+04 0.384228886612189D+03 -.254596950098263D+03 -.125199370919787D+04
 0.000000000000000D+00 0.000000000000000D+00 0.000000000000000D+00 -.000000000000000D+00
 0.139809949661963D+04 0.000000000000000D+00 0.000000000000000D+00 0.139809949661963D+04
 0.139809949661963D+04 -.000000000000000D+00 -.000000000000000D+00 -.139809949661963D+04
 0.676768571164066D+03 -.428676537547716D+03 0.193408734514162D+03 0.470340500579297D+03
 0.784527539950018D+03 0.446872345511083D+02 0.610294631843055D+02 0.780872535457379D+03
 0.114660311490798D+04 0.327505624034235D+03 -.240954133098266D+03 -.107209135575542D+04
 0.188299767217192D+03 0.564836789623723D+02 -.134840646002012D+02 -.179121680281261D+03
-.416603881207D-09 0.000000000000D+00 0.000000000000D+00 0.474853365114D-04 0.000000000000D+00  6 2 -2 25 2 -2 21 2 0.38909881D+00 0.11890210D+00 0.26364237D+06 0.26364237D+06 0.26364237D+06 0.10887274D+01  1  2 13  4  6  5       -2 -.119019903383D-09 0.100000000000D+01
-.267613113924D-01 0.000000000000D+00 0.000000000000D+00 0.474853365114D-04 0.000000000000D+00  6 2 -2 25 2 -2 21 2 0.38909881D+00 0.11890210D+00 0.26364237D+06 0.26364237D+06 0.26364237D+06 0.10887274D+01  1  2 13  4  6  5       -2 -.764546092827D-02 0.100000000000D+01
0.337880061148D-01 0.000000000000D+00 0.000000000000D+00 0.474853365114D-04 0.548874603141D-06  6 2 -2 25 2 -2 21 2 0.38909881D+00 0.11890210D+00 0.26364237D+06 0.26364237D+06 0.26364237D+06 0.10887274D+01  1  2  1  4  6  5       -2 0.965292308764D-02 0.100000000000D+01
  </mgrwgt>
  </event>
  <event>
  6     66 0.15870568E-05 0.16303639E+02 0.75467711E-02 0.95130002E-01
        2 -1    0    0  503    0 0.00000000E+00 0.00000000E+00 0.53630805E+03 0.53630814E+03 0.32000000E+00 0.0000E+00 0.9000E+01
       -2 -1    0    0    0  501 0.00000000E+00 0.00000000E+00 -.11326652E+04 0.11326652E+04 0.32000000E+00 0.0000E+00 0.9000E+01
       25  1    1    2    0    0 -.30666708E+03 -.32996022E+03 0.19093203E+02 0.46787605E+03 0.12500000E+03 0.0000E+00 0.9000E+01
        2  1    1    2  502    0 0.31036505E+03 0.34859750E+03 -.25561296E+02 0.46744001E+03 0.32000000E+00 0.0000E+00 0.9000E+01
       -2  1    1    2    0  501 -.75133119E+01 -.16812608E+02 -.66158072E+03 0.66183704E+03 0.32000000E+00 0.0000E+00 0.9000E+01
       21  1    1    2  503  502 0.38153372E+01 -.18246691E+01 0.71691698E+02 0.71820250E+02 0.75000000E+00 0.0000E+00 0.9000E+01
#aMCatNLO 2  0  0  1  4 0.20174229D+01 0.00000000D+00  -5  6  0 0.00000000D+00 0.00000000D+00 0.00000000D+00 0.00000000D+00 0.00000000D+00
  <mgrwgt>
 0.1324592702D-01    1    2    0
 0.725360416549725D+03 0.000000000000000D+00 0.000000000000000D+00 0.725360416549725D+03
 0.725360416549725D+03 0.000000000000000D+00 0.000000000000000D+00 -.725360416549725D+03
 0.523491998070942D+03 -.305241026297645D+03 -.330562627475090D+03 0.236590653293474D+03
 0.503152144881135D+03 0.311640333528375D+03 0.347911555035031D+03 0.187082691048412D+03
 0.424076690147374D+03 -.639930723073002D+01 -.173489275599416D+02 -.423673344341886D+03
 0.000000000000000D+00 0.000000000000000D+00 -.000000000000000D+00 0.000000000000000D+00
 0.837403648223772D+03 0.000000000000000D+00 0.000000000000000D+00 0.837403648223772D+03
 0.725403409121914D+03 0.000000000000000D+00 0.000000000000000D+00 -.725403409121914D+03
 0.523881223280473D+03 -.306618298000407D+03 -.329903953009579D+03 0.236590653293474D+03
 0.502772273208456D+03 0.310317566048829D+03 0.348544163082404D+03 0.187082691048412D+03
 0.424073501193287D+03 -.751460522996475D+01 -.168155409289241D+02 -.423673344341886D+03
 0.112080059663470D+03 0.381533718154289D+01 -.182466914390145D+01 0.112000239101858D+03
0.821549277382D-02 0.000000000000D+00 0.000000000000D+00 0.209749980534D-05 0.768159269996D-06  6 2 -2 25 2 -2 21 2 0.82508799D-01 0.17425589D+00 0.22883361D+06 0.22883361D+06 0.22883361D+06 0.10933613D+01  1  2  1  1  6  1        2 0.132459270170D-01 0.100000000000D+01
  </mgrwgt>
  </event>
  <event>
  5     66 0.15870568E-05 0.55965036E+02 0.75467711E-02 0.94137950E-01
        2 -1    0    0  502    0 0.00000000E+00 0.00000000E+00 0.28758355E+04 0.28758355E+04 0.32000000E+00 0.0000E+00 0.9000E+01
       -2 -1    0    0    0  501 0.00000000E+00 0.00000000E+00 -.28367984E+03 0.28368002E+03 0.32000000E+00 0.0000E+00 0.9000E+01
       25  1    1    2    0    0 0.44248305E+03 -.19665460E+03 0.55496544E+03 0.74704479E+03 0.12500000E+03 0.0000E+00 0.9000E+01
        2  1    1    2  502    0 0.16885373E+02 0.53365807E+02 0.19152438E+04 0.19160616E+04 0.32000000E+00 0.0000E+00 0.9000E+01
       -2  1    1    2    0  501 -.45936842E+03 0.14328879E+03 0.12194639E+03 0.49640916E+03 0.32000000E+00 0.0000E+00 0.9000E+01
#aMCatNLO 1  0  0  1  2 0.63884070D+01 0.00000000D+00  -5  6  0 0.00000000D+00 0.00000000D+00 0.00000000D+00 0.00000000D+00 0.00000000D+00
  <mgrwgt>
 0.1983683585D-02   11    2    0
 0.903225815315092D+03 0.000000000000000D+00 0.000000000000000D+00 0.903225815315092D+03
 0.903225815315092D+03 0.000000000000000D+00 0.000000000000000D+00 -.903225815315092D+03
 0.510307802131470D+03 0.442555240424741D+03 -.196674001186143D+03 -.101258329762467D+03
 0.602868464226794D+03 0.168828400702575D+02 0.533578016573839D+02 0.600265191288505D+03
 0.693275364271920D+03 -.459438080494998D+03 0.143316199528759D+03 -.499006861526039D+03
 0.000000000000000D+00 -.000000000000000D+00 -.000000000000000D+00 0.000000000000000D+00
 0.915240739934781D+03 0.000000000000000D+00 0.000000000000000D+00 0.915240739934781D+03
 0.904081051237157D+03 0.000000000000000D+00 0.000000000000000D+00 -.904081051237157D+03
 0.511682722033195D+03 0.444317292202567D+03 -.196273030574234D+03 -.101258329762467D+03
 0.602972320145580D+03 0.189618749024202D+02 0.538309045930206D+02 0.600265191288505D+03
 0.691807884523588D+03 -.457050007080157D+03 0.143859626952677D+03 -.499006861526039D+03
 0.128588644695756D+02 -.622916002483022D+01 -.141750097146373D+01 0.111596886976237D+02
0.132148398220D-03 0.000000000000D+00 0.000000000000D+00 0.624497411522D-05 0.000000000000D+00  6 2 -2 25 2 -2 21 0 0.44243624D+00 0.43643068D-01 0.26904863D+06 0.26904863D+06 0.26904863D+06 0.10880681D+01  1  2  2  1  6  1        2 0.178845038269D-03 0.100000000000D+01
0.506067140793D-04 0.000000000000D+00 -.507484644638D-06 0.624497411522D-05 0.000000000000D+00  6 2 -2 25 2 -2 21 2 0.44243624D+00 0.43643068D-01 0.26904863D+06 0.26904863D+06 0.26904863D+06 0.10880681D+01  1  2  3  1  6  1        2 0.810840163940D-04 0.100000000000D+01
-.771760974009D-04 0.000000000000D+00 0.000000000000D+00 0.624497411522D-05 0.000000000000D+00  6 2 -2 25 2 -2 21 2 0.44243624D+00 0.43643068D-01 0.26904863D+06 0.26904863D+06 0.26904863D+06 0.10880681D+01  1  2 15  1  6  1        2 -.123654500410D-03 0.100000000000D+01
0.197903751845D-09 0.000000000000D+00 0.000000000000D+00 0.624497411522D-05 0.000000000000D+00  6 2 -2 25 2 -2 21 2 0.44852958D+00 0.43643068D-01 0.27257832D+06 0.27257832D+06 0.27257832D+06 0.10876453D+01  1  2 12  1  6  1        2 0.299184148300D-09 0.100000000000D+01
-.278636445363D-04 0.000000000000D+00 0.000000000000D+00 0.624497411522D-05 0.000000000000D+00  6 2 -2 25 2 -2 21 2 0.44243624D+00 0.43643068D-01 0.26904863D+06 0.26904863D+06 0.26904863D+06 0.10880681D+01  1  2  4  1  6  1        2 -.446441989265D-04 0.100000000000D+01
-.212083373894D-01 0.000000000000D+00 -.148396016063D-02 0.624497411522D-05 0.000000000000D+00  6 2 -2 25 2 -2 21 2 0.44844175D+00 0.43643068D-01 0.26904863D+06 0.26904863D+06 0.26904863D+06 0.10880681D+01  1  2  5  1  6  1        2 -.321427462656D-01 0.100000000000D+01
0.212265503589D-01 0.000000000000D+00 0.148382529700D-02 0.624497411522D-05 0.000000000000D+00  6 2 -2 25 2 -2 21 2 0.44243624D+00 0.43643068D-01 0.26904863D+06 0.26904863D+06 0.26904863D+06 0.10880681D+01  1  2  6  1  6  1        2 0.340099923222D-01 0.100000000000D+01
0.201708128671D-04 0.000000000000D+00 0.000000000000D+00 0.624497411522D-05 0.324282498260D-07  6 2 -2 25 2 -2 21 2 0.44832163D+00 0.43684392D-01 0.27257832D+06 0.27257832D+06 0.27257832D+06 0.10876453D+01  1  2 11  1  6  1        2 0.304971294805D-04 0.100000000000D+01
0.190735145193D-10 0.000000000000D+00 0.000000000000D+00 0.624497411522D-05 0.000000000000D+00  6 21 -2 25 2 -2 -2 2 0.44852958D+00 0.43643068D-01 0.27257832D+06 0.27257832D+06 0.27257832D+06 0.10876453D+01  1  2 12  5  6  1        2 0.214173578722D-11 0.100000000000D+01
-.524461533754D-04 0.000000000000D+00 -.367664819638D-05 0.624497411522D-05 0.000000000000D+00  6 21 -2 25 2 -2 -2 2 0.44844175D+00 0.43643068D-01 0.26904863D+06 0.26904863D+06 0.26904863D+06 0.10880681D+01  1  2  5  5  6  1        2 -.591223707534D-05 0.100000000000D+01
0.197354245405D-05 0.000000000000D+00 0.000000000000D+00 0.624497411522D-05 0.967200571457D-09  6 21 -2 25 2 -2 -2 2 0.44832163D+00 0.43684392D-01 0.27257832D+06 0.27257832D+06 0.27257832D+06 0.10876453D+01  1  2 11  5  6  1        2 0.221979420936D-06 0.100000000000D+01
  </mgrwgt>
  </event>
  <event>
  5     66 0.15870568E-05 0.46686136E+02 0.75467711E-02 0.90772603E-01
        2 -1    0    0  502    0 0.00000000E+00 0.00000000E+00 0.17429141E+04 0.17429141E+04 0.32000000E+00 0.0000E+00 0.9000E+01
       -2 -1    0    0    0  501 0.00000000E+00 0.00000000E+00 -.86441076E+03 0.86441082E+03 0.32000000E+00 0.0000E+00 0.9000E+01
       25  1    1    2    0    0 0.20741174E+03 -.46157217E+03 -.41353215E+03 0.66535880E+03 0.12500000E+03 0.0000E+00 0.9000E+01
        2  1    1    2  502    0 -.24296837E+03 0.43130918E+03 0.15771690E+04 0.16530346E+04 0.32000000E+00 0.0000E+00 0.9000E+01
       -2  1    1    2    0  501 0.35556632E+02 0.30262995E+02 -.28513360E+03 0.28893147E+03 0.32000000E+00 0.0000E+00 0.9000E+01
#aMCatNLO 1  0  0  2  2 0.28948000D+03 0.00000000D+00  -5  6  0 0.00000000D+00 0.00000000D+00 0.00000000D+00 0.00000000D+00 0.00000000D+00
  <mgrwgt>
 0.9671867377D-02    7    4    0
 0.122743382095095D+04 0.000000000000000D+00 0.000000000000000D+00 0.122743382095095D+04
 0.122743382095095D+04 0.000000000000000D+00 0.000000000000000D+00 -.122743382095095D+04
 0.854722025815011D+03 0.207417231873198D+03 -.461570793768805D+03 -.677388541145340D+03
 0.119129354052546D+04 -.242969860216316D+03 0.431311812867405D+03 0.108356636474430D+04
 0.408852075561425D+03 0.355526283431180D+02 0.302589809013995D+02 -.406177823598963D+03
 0.000000000000000D+00 -.000000000000000D+00 0.000000000000000D+00 -.000000000000000D+00
 0.128688196905530D+04 0.000000000000000D+00 0.000000000000000D+00 0.128688196905530D+04
 0.183778692259784D+04 0.000000000000000D+00 0.000000000000000D+00 -.183778692259784D+04
 0.911280482646475D+03 0.321422083238852D+03 -.502632795173353D+03 -.677388541145340D+03
 0.115089340834293D+04 -.917692397772535D+02 0.376852726131491D+03 0.108356636474430D+04
 0.415918203064572D+03 0.887959349494498D+02 0.110819309385011D+02 -.406177823598963D+03
 0.646576797599158D+03 -.318448778411048D+03 0.114698138103361D+03 -.550904953542547D+03
 0.122743382095095D+04 0.000000000000000D+00 0.000000000000000D+00 0.122743382095095D+04
 0.122743382095095D+04 0.000000000000000D+00 0.000000000000000D+00 -.122743382095095D+04
 0.854722025815011D+03 0.207417231873198D+03 -.461570793768805D+03 -.677388541145340D+03
 0.119129354052546D+04 -.242969860216316D+03 0.431311812867405D+03 0.108356636474430D+04
 0.000000000000000D+00 -.000000000000000D+00 0.000000000000000D+00 -.000000000000000D+00
 0.408852075561425D+03 0.355526283431180D+02 0.302589809013995D+02 -.406177823598963D+03
 0.128688196905530D+04 0.000000000000000D+00 0.000000000000000D+00 0.128688196905530D+04
 0.183778692259784D+04 0.000000000000000D+00 0.000000000000000D+00 -.183778692259784D+04
 0.911280482646475D+03 0.321422083238852D+03 -.502632795173353D+03 -.677388541145340D+03
 0.115089340834293D+04 -.917692397772535D+02 0.376852726131491D+03 0.108356636474430D+04
 0.646576797599158D+03 -.318448778411048D+03 0.114698138103361D+03 -.550904953542547D+03
 0.415918203064572D+03 0.887959349494498D+02 0.110819309385011D+02 -.406177823598963D+03
0.708269479614D-02 0.000000000000D+00 0.000000000000D+00 0.197588518077D-04 0.000000000000D+00  6 2 -2 25 2 -2 21 0 0.26814063D+00 0.13298628D+00 0.28247577D+06 0.28247577D+06 0.28247577D+06 0.10864911D+01  1  2  2  2  6  2       -2 0.347546315227D-02 0.100000000000D+01
0.189390102109D-02 0.000000000000D+00 -.271994129336D-04 0.197588518077D-04 0.000000000000D+00  6 2 -2 25 2 -2 21 2 0.26814063D+00 0.13298628D+00 0.28247577D+06 0.28247577D+06 0.28247577D+06 0.10864911D+01  1  2  3  2  6  2       -2 0.109704341002D-02 0.100000000000D+01
-.462192712811D-02 0.000000000000D+00 0.000000000000D+00 0.197588518077D-04 0.000000000000D+00  6 2 -2 25 2 -2 21 2 0.26814063D+00 0.13298628D+00 0.28247577D+06 0.28247577D+06 0.28247577D+06 0.10864911D+01  1  2 15  2  6  2       -2 -.267725432377D-02 0.100000000000D+01
-.151934495314D-03 0.000000000000D+00 0.000000000000D+00 0.197588518077D-04 0.000000000000D+00  6 2 -2 25 2 -2 21 2 0.26814063D+00 0.13298628D+00 0.28247577D+06 0.28247577D+06 0.28247577D+06 0.10864911D+01  1  2  4  2  6  2       -2 -.880081561730D-04 0.100000000000D+01
-.212995164892D-01 0.000000000000D+00 -.515002526717D-02 0.197588518077D-04 0.000000000000D+00  6 2 -2 25 2 -2 21 2 0.26814063D+00 0.20308375D+00 0.28247577D+06 0.28247577D+06 0.28247577D+06 0.10864911D+01  1  2  5  2  6  2       -2 -.365551921942D-02 0.100000000000D+01
0.219156788013D-01 0.000000000000D+00 0.472059787512D-02 0.197588518077D-04 0.000000000000D+00  6 2 -2 25 2 -2 21 2 0.26814063D+00 0.13298628D+00 0.28247577D+06 0.28247577D+06 0.28247577D+06 0.10864911D+01  1  2  6  2  6  2       -2 0.126946713358D-01 0.100000000000D+01
-.867701124319D-03 0.000000000000D+00 -.255642348578D-03 0.197588518077D-04 0.000000000000D+00  6 2 21 25 2 2 -2 2 0.26814063D+00 0.20308375D+00 0.28247577D+06 0.28247577D+06 0.28247577D+06 0.10864911D+01  3  4  5  6  5  2       -2 -.117452882149D-02 0.100000000000D+01
  </mgrwgt>
  </event>
  <event>
  5     66 0.15870568E-05 0.21134211E+03 0.75467711E-02 0.92942645E-01
        2 -1    0    0  502    0 0.00000000E+00 0.00000000E+00 0.21117950E+04 0.21117950E+04 0.32000000E+00 0.0000E+00 0.9000E+01
       -2 -1    0    0    0  501 0.00000000E+00 0.00000000E+00 -.81042868E+03 0.81042875E+03 0.32000000E+00 0.0000E+00 0.9000E+01
       25  1    1    2    0    0 0.55846608E+03 0.70510822E+02 0.75260607E+03 0.94810181E+03 0.12500000E+03 0.0000E+00 0.9000E+01
        2  1    1    2  502    0 -.20998272E+03 -.24227336E+02 0.12083500E+04 0.12266986E+04 0.32000000E+00 0.0000E+00 0.9000E+01
       -2  1    1    2    0  501 -.34848336E+03 -.46283486E+02 -.65958978E+03 0.74742330E+03 0.32000000E+00 0.0000E+00 0.9000E+01
#aMCatNLO 1  0  0  1  4 0.16374866D+02 0.00000000D+00  -5  6  0 0.00000000D+00 0.00000000D+00 0.00000000D+00 0.00000000D+00 0.00000000D+00
  <mgrwgt>
 0.1294105226D-02   11    2    0
 0.130822756466211D+04 0.000000000000000D+00 0.000000000000000D+00 0.130822756466211D+04
 0.130822756466211D+04 0.000000000000000D+00 0.000000000000000D+00 -.130822756466211D+04
 0.684656151294893D+03 0.558475501706639D+03 0.705126072230981D+02 0.369137009417987D+03
 0.768926420723139D+03 -.209949300659826D+03 -.242234796416036D+02 0.739312082055069D+03
 0.116287255730618D+04 -.348526201046813D+03 -.462891275814945D+02 -.110844909147306D+04
 0.000000000000000D+00 0.000000000000000D+00 -.000000000000000D+00 0.000000000000000D+00
 0.159621166491305D+04 0.000000000000000D+00 0.000000000000000D+00 0.159621166491305D+04
 0.130848597529072D+04 0.000000000000000D+00 0.000000000000000D+00 -.130848597529072D+04
 0.681464181123833D+03 0.554394445520944D+03 0.717850765009475D+02 0.369137009417987D+03
 0.770150742086773D+03 -.214547036471595D+03 -.227899101679337D+02 0.739312082055069D+03
 0.116489144597510D+04 -.355480006988351D+03 -.441209377742211D+02 -.110844909147306D+04
 0.288191271018063D+03 0.156325979390027D+02 -.487422855879258D+01 0.287725689622322D+03
0.210938145166D-04 0.000000000000D+00 0.000000000000D+00 0.404722337056D-05 0.000000000000D+00  6 2 -2 25 2 -2 21 0 0.32489154D+00 0.12468134D+00 0.32464350D+06 0.32464350D+06 0.32464350D+06 0.10820244D+01  1  2  2  1  6  1        2 0.762182751711D-05 0.100000000000D+01
0.215839195160D-05 0.000000000000D+00 -.810058018728D-07 0.404722337056D-05 0.000000000000D+00  6 2 -2 25 2 -2 21 2 0.32489154D+00 0.12468134D+00 0.32464350D+06 0.32464350D+06 0.32464350D+06 0.10820244D+01  1  2  3  1  6  1        2 0.913079053502D-06 0.100000000000D+01
-.123580458992D-04 0.000000000000D+00 0.000000000000D+00 0.404722337056D-05 0.000000000000D+00  6 2 -2 25 2 -2 21 2 0.32489154D+00 0.12468134D+00 0.32464350D+06 0.32464350D+06 0.32464350D+06 0.10820244D+01  1  2 15  1  6  1        2 -.522790721325D-05 0.100000000000D+01
0.277303763038D-08 0.000000000000D+00 0.000000000000D+00 0.404722337056D-05 0.000000000000D+00  6 2 -2 25 2 -2 21 2 0.39643841D+00 0.12468134D+00 0.33823762D+06 0.33823762D+06 0.33823762D+06 0.10807182D+01  1  2 12  1  6  1        2 0.634392722856D-09 0.100000000000D+01
0.105042472530D-01 0.000000000000D+00 0.000000000000D+00 0.404722337056D-05 0.000000000000D+00  6 2 -2 25 2 -2 21 2 0.39949511D+00 0.12468134D+00 0.33823762D+06 0.33823762D+06 0.33823762D+06 0.10807182D+01  1  2 12  1  6  1        2 0.233930051702D-02 0.100000000000D+01
-.729838038904D-02 0.000000000000D+00 0.000000000000D+00 0.404722337056D-05 0.000000000000D+00  6 2 -2 25 2 -2 21 2 0.32489154D+00 0.12468134D+00 0.32464350D+06 0.32464350D+06 0.32464350D+06 0.10820244D+01  1  2  4  1  6  1        2 -.308748290726D-02 0.100000000000D+01
-.110338396860D-01 0.000000000000D+00 -.217049391626D-04 0.404722337056D-05 0.000000000000D+00  6 2 -2 25 2 -2 21 2 0.39643221D+00 0.12468134D+00 0.32464350D+06 0.32464350D+06 0.32464350D+06 0.10820244D+01  1  2  5  1  6  1        2 -.253920638491D-02 0.100000000000D+01
0.108235330003D-01 0.000000000000D+00 0.212820924754D-04 0.404722337056D-05 0.000000000000D+00  6 2 -2 25 2 -2 21 2 0.32489154D+00 0.12468134D+00 0.32464350D+06 0.32464350D+06 0.32464350D+06 0.10820244D+01  1  2  6  1  6  1        2 0.457875190840D-02 0.100000000000D+01
0.790598024113D-10 0.000000000000D+00 0.000000000000D+00 0.404722337056D-05 0.000000000000D+00  6 21 -2 25 2 -2 -2 2 0.39643841D+00 0.12468134D+00 0.33823762D+06 0.33823762D+06 0.33823762D+06 0.10807182D+01  1  2 12  5  6  1        2 0.193262517223D-11 0.100000000000D+01
0.308279269900D-03 0.000000000000D+00 0.000000000000D+00 0.404722337056D-05 0.000000000000D+00  6 21 -2 25 2 -2 -2 2 0.39949511D+00 0.12468134D+00 0.33823762D+06 0.33823762D+06 0.33823762D+06 0.10807182D+01  1  2 12  5  6  1        2 0.718080552721D-05 0.100000000000D+01
-.314309933890D-03 0.000000000000D+00 -.618774402256D-06 0.404722337056D-05 0.000000000000D+00  6 21 -2 25 2 -2 -2 2 0.39643221D+00 0.12468134D+00 0.32464350D+06 0.32464350D+06 0.32464350D+06 0.10820244D+01  1  2  5  5  6  1        2 -.774634876709D-05 0.100000000000D+01
  </mgrwgt>
  </event>
  <event>
  5     66 -.15870568E-05 0.11741622E+03 0.75467711E-02 0.92675960E-01
        2 -1    0    0  502    0 0.00000000E+00 0.00000000E+00 0.11691891E+04 0.11691891E+04 0.32000000E+00 0.0000E+00 0.9000E+01
       -2 -1    0    0    0  501 0.00000000E+00 0.00000000E+00 -.60572265E+03 0.60572273E+03 0.32000000E+00 0.0000E+00 0.9000E+01
       25  1    1    2    0    0 -.37754533E+03 -.36306734E+03 -.43281847E+02 0.54023762E+03 0.12500000E+03 0.0000E+00 0.9000E+01
        2  1    1    2  502    0 0.28614446E+03 0.43676152E+03 0.83106828E+03 0.98148554E+03 0.32000000E+00 0.0000E+00 0.9000E+01
       -2  1    1    2    0  501 0.91400871E+02 -.73694179E+02 -.22432000E+03 0.25318870E+03 0.32000000E+00 0.0000E+00 0.9000E+01
#aMCatNLO 1  0  0  1  4 0.15150148D+02 0.00000000D+00  -5  6  0 0.00000000D+00 0.00000000D+00 0.00000000D+00 0.00000000D+00 0.00000000D+00
  <mgrwgt>
 -.2863742381D-02   11    2    0
 0.841548821419614D+03 0.000000000000000D+00 0.000000000000000D+00 0.841548821419614D+03
 0.841548821419614D+03 0.000000000000000D+00 0.000000000000000D+00 -.841548821419614D+03
 0.584183791388523D+03 -.377548560971458D+03 -.363059393217856D+03 -.226474420687484D+03
 0.756792607032312D+03 0.286141027039641D+03 0.436756281840405D+03 0.547815948085128D+03
 0.342121244418395D+03 0.914075339318173D+02 -.736968886225482D+02 -.321341527397643D+03
 0.000000000000000D+00 0.000000000000000D+00 0.000000000000000D+00 0.000000000000000D+00
 0.925605013358290D+03 0.000000000000000D+00 0.000000000000000D+00 0.925605013358290D+03
 0.842265849981091D+03 0.000000000000000D+00 0.000000000000000D+00 -.842265849981091D+03
 0.588673035452359D+03 -.379978400170633D+03 -.367745421245090D+03 -.226474420687484D+03
 0.752147529766824D+03 0.283014914960405D+03 0.430727467742520D+03 0.547815948085128D+03
 0.342345262114331D+03 0.899895061640335D+02 -.764316036874333D+02 -.321341527397643D+03
 0.847050360058676D+02 0.697397904619453D+01 0.134495571900035D+02 0.833391633771986D+02
0.110543803345D-04 0.000000000000D+00 0.000000000000D+00 0.296767092195D-06 0.000000000000D+00  6 2 -2 25 2 -2 21 0 0.17987525D+00 0.93188110D-01 0.34695435D+06 0.34695435D+06 0.34695435D+06 0.10799104D+01  1  2  2  1  6  1        2 0.272480222705D-04 0.100000000000D+01
0.142140385029D-05 0.000000000000D+00 -.424517311695D-07 0.296767092195D-06 0.000000000000D+00  6 2 -2 25 2 -2 21 2 0.17987525D+00 0.93188110D-01 0.34695435D+06 0.34695435D+06 0.34695435D+06 0.10799104D+01  1  2  3  1  6  1        2 0.408595416314D-05 0.100000000000D+01
-.627062879112D-05 0.000000000000D+00 0.000000000000D+00 0.296767092195D-06 0.000000000000D+00  6 2 -2 25 2 -2 21 2 0.17987525D+00 0.93188110D-01 0.34695435D+06 0.34695435D+06 0.34695435D+06 0.10799104D+01  1  2 15  1  6  1        2 -.180254906510D-04 0.100000000000D+01
0.448605214255D-07 0.000000000000D+00 0.000000000000D+00 0.296767092195D-06 0.000000000000D+00  6 2 -2 25 2 -2 21 2 0.19791391D+00 0.93188110D-01 0.35519760D+06 0.35519760D+06 0.35519760D+06 0.10791666D+01  1  2 12  1  6  1        2 0.110052192568D-06 0.100000000000D+01
0.146607966429D-02 0.000000000000D+00 0.000000000000D+00 0.296767092195D-06 0.000000000000D+00  6 2 -2 25 2 -2 21 2 0.19847812D+00 0.93188110D-01 0.35519760D+06 0.35519760D+06 0.35519760D+06 0.10791666D+01  1  2 12  1  6  1        2 0.357933685302D-02 0.100000000000D+01
-.247160676486D-02 0.000000000000D+00 0.000000000000D+00 0.296767092195D-06 0.000000000000D+00  6 2 -2 25 2 -2 21 2 0.17987525D+00 0.93188110D-01 0.34695435D+06 0.34695435D+06 0.34695435D+06 0.10799104D+01  1  2  4  1  6  1        2 -.710485760152D-02 0.100000000000D+01
-.159886620753D-02 0.000000000000D+00 -.269580283182D-04 0.296767092195D-06 0.000000000000D+00  6 2 -2 25 2 -2 21 2 0.19790691D+00 0.93188110D-01 0.34695435D+06 0.34695435D+06 0.34695435D+06 0.10799104D+01  1  2  5  1  6  1        2 -.393264190044D-02 0.100000000000D+01
0.159428342333D-02 0.000000000000D+00 0.268354769242D-04 0.296767092195D-06 0.000000000000D+00  6 2 -2 25 2 -2 21 2 0.17987525D+00 0.93188110D-01 0.34695435D+06 0.34695435D+06 0.34695435D+06 0.10799104D+01  1  2  6  1  6  1        2 0.458291216072D-02 0.100000000000D+01
0.706486993586D-09 0.000000000000D+00 0.000000000000D+00 0.296767092195D-06 0.000000000000D+00  6 21 -2 25 2 -2 -2 2 0.19791391D+00 0.93188110D-01 0.35519760D+06 0.35519760D+06 0.35519760D+06 0.10791666D+01  1  2 12  5  6  1        2 0.790170038336D-09 0.100000000000D+01
0.236840218702D-04 0.000000000000D+00 0.000000000000D+00 0.296767092195D-06 0.000000000000D+00  6 21 -2 25 2 -2 -2 2 0.19847812D+00 0.93188110D-01 0.35519760D+06 0.35519760D+06 0.35519760D+06 0.10791666D+01  1  2 12  5  6  1        2 0.262329454413D-04 0.100000000000D+01
-.250695108575D-04 0.000000000000D+00 -.420860573802D-06 0.296767092195D-06 0.000000000000D+00  6 21 -2 25 2 -2 -2 2 0.19790691D+00 0.93188110D-01 0.34695435D+06 0.34695435D+06 0.34695435D+06 0.10799104D+01  1  2  5  5  6  1        2 -.281441664093D-04 0.100000000000D+01
  </mgrwgt>
  </event>
  <event>
  5     66 0.15870568E-05 0.18177764E+03 0.75467711E-02 0.91880502E-01
        2 -1    0    0  502    0 0.00000000E+00 0.00000000E+00 0.11425735E+04 0.11425735E+04 0.32000000E+00 0.0000E+00 0.9000E+01
       -2 -1    0    0    0  501 0.00000000E+00 0.00000000E+00 -.61717143E+03 0.61717152E+03 0.32000000E+00 0.0000E+00 0.9000E+01
       25  1    1    2    0    0 -.18374552E+03 -.50259853E+03 -.27114683E+03 0.61279140E+03 0.12500000E+03 0.0000E+00 0.9000E+01
        2  1    1    2  502    0 0.13721263E+03 0.32691066E+03 0.87868063E+03 0.94751128E+03 0.32000000E+00 0.0000E+00 0.9000E+01
       -2  1    1    2    0  501 0.46532895E+02 0.17568787E+03 -.82131729E+02 0.19944238E+03 0.32000000E+00 0.0000E+00 0.9000E+01
#aMCatNLO 1  0  0  1  2 0.17936708D+03 0.00000000D+00  -5  6  0 0.00000000D+00 0.00000000D+00 0.00000000D+00 0.00000000D+00 0.00000000D+00
  <mgrwgt>
 0.1113007809D-03    9    2    0
 0.839740339874771D+03 0.000000000000000D+00 0.000000000000000D+00 0.839740339874771D+03
 0.839740339874771D+03 0.000000000000000D+00 0.000000000000000D+00 -.839740339874771D+03
 0.726881020471721D+03 -.183750649182937D+03 -.502617769508283D+03 -.475754237628398D+03
 0.717886580012886D+03 0.137207971304088D+03 0.326899563188482D+03 0.624236966191841D+03
 0.234713079264935D+03 0.465426778788499D+02 0.175718206319800D+03 -.148482728563443D+03
 0.000000000000000D+00 0.000000000000000D+00 -.000000000000000D+00 0.000000000000000D+00
 0.979136690047283D+03 0.000000000000000D+00 0.000000000000000D+00 0.979136690047283D+03
 0.904262407146715D+03 0.000000000000000D+00 0.000000000000000D+00 -.904262407146715D+03
 0.721567002354671D+03 -.250814622116584D+03 -.464525424060128D+03 -.475754237628398D+03
 0.726470333230420D+03 0.703334190869772D+02 0.364884317644727D+03 0.624236966191841D+03
 0.240994310496223D+03 0.245171533115099D+02 0.188228707171368D+03 -.148482728563443D+03
 0.194367451112685D+03 0.155964049718097D+03 -.885876007559675D+02 0.748742829005684D+02
0.252612343146D-04 0.000000000000D+00 0.000000000000D+00 0.626714809842D-07 0.000000000000D+00  6 2 -2 25 2 -2 21 0 0.17578055D+00 0.94949461D-01 0.29477435D+06 0.29477435D+06 0.29477435D+06 0.10851169D+01  1  2  2  1  6  1        2 0.622313319380D-04 0.100000000000D+01
0.137633130982D-05 0.000000000000D+00 -.970097912040D-07 0.626714809842D-07 0.000000000000D+00  6 2 -2 25 2 -2 21 2 0.17578055D+00 0.94949461D-01 0.29477435D+06 0.29477435D+06 0.29477435D+06 0.10851169D+01  1  2  3  1  6  1        2 0.399236832323D-05 0.100000000000D+01
-.140042775450D-04 0.000000000000D+00 0.000000000000D+00 0.626714809842D-07 0.000000000000D+00  6 2 -2 25 2 -2 21 2 0.17578055D+00 0.94949461D-01 0.29477435D+06 0.29477435D+06 0.29477435D+06 0.10851169D+01  1  2 15  1  6  1        2 -.406226565227D-04 0.100000000000D+01
0.218619698924D-07 0.000000000000D+00 0.000000000000D+00 0.626714809842D-07 0.000000000000D+00  6 2 -2 25 2 -2 21 2 0.21084864D+00 0.94949461D-01 0.41171254D+06 0.41171254D+06 0.41171254D+06 0.10745252D+01  1  2 12  1  6  1        2 0.452353573110D-07 0.100000000000D+01
-.323602352433D-05 0.000000000000D+00 0.000000000000D+00 0.626714809842D-07 0.000000000000D+00  6 2 -2 25 2 -2 21 2 0.17578055D+00 0.94949461D-01 0.29477435D+06 0.29477435D+06 0.29477435D+06 0.10851169D+01  1  2  4  1  6  1        2 -.938683710787D-05 0.100000000000D+01
-.103013361717D-03 0.000000000000D+00 -.321058384566D-04 0.626714809842D-07 0.000000000000D+00  6 2 -2 25 2 -2 21 2 0.21391776D+00 0.94949461D-01 0.29477435D+06 0.29477435D+06 0.29477435D+06 0.10851169D+01  1  2  5  1  6  1        2 -.215635858154D-03 0.100000000000D+01
0.107841035017D-03 0.000000000000D+00 0.314967011565D-04 0.626714809842D-07 0.000000000000D+00  6 2 -2 25 2 -2 21 2 0.17578055D+00 0.94949461D-01 0.29477435D+06 0.29477435D+06 0.29477435D+06 0.10851169D+01  1  2  6  1  6  1        2 0.312817945121D-03 0.100000000000D+01
0.581347462533D-09 0.000000000000D+00 0.000000000000D+00 0.626714809842D-07 0.000000000000D+00  6 21 -2 25 2 -2 -2 2 0.21084864D+00 0.94949461D-01 0.41171254D+06 0.41171254D+06 0.41171254D+06 0.10745252D+01  1  2 12  5  6  1        2 0.487763017470D-09 0.100000000000D+01
-.254833415748D-05 0.000000000000D+00 -.905875738428D-06 0.626714809842D-07 0.000000000000D+00  6 21 -2 25 2 -2 -2 2 0.21391776D+00 0.94949461D-01 0.29477435D+06 0.29477435D+06 0.29477435D+06 0.10851169D+01  1  2  5  5  6  1        2 -.214123581550D-05 0.100000000000D+01
  </mgrwgt>
  </event>
  <event>
  5     66 -.15870568E-05 0.28859526E+02 0.75467711E-02 0.94949300E-01
        2 -1    0    0  502    0 0.00000000E+00 0.00000000E+00 0.31680922E+04 0.31680922E+04 0.32000000E+00 0.0000E+00 0.9000E+01
       -2 -1    0    0    0  501 0.00000000E+00 0.00000000E+00 -.59287133E+03 0.59287142E+03 0.32000000E+00 0.0000E+00 0.9000E+01
       25  1    1    2    0    0 0.40161013E+03 -.21441692E+03 0.17128789E+04 0.17767511E+04 0.12500000E+03 0.0000E+00 0.9000E+01
        2  1    1    2  502    0 0.18014640E+02 0.22558028E+02 0.13282099E+04 0.13285237E+04 0.32000000E+00 0.0000E+00 0.9000E+01
       -2  1    1    2    0  501 -.41962477E+03 0.19185889E+03 -.46586800E+03 0.65568885E+03 0.32000000E+00 0.0000E+00 0.9000E+01
#aMCatNLO 1  0  0  5  1 0.29669518D+02 0.00000000D+00  -5  6  0 0.00000000D+00 0.00000000D+00 0.00000000D+00 0.00000000D+00 0.00000000D+00
  <mgrwgt>
 -.4503934767D-02    6    2    0
 0.137050035248196D+04 0.000000000000000D+00 0.000000000000000D+00 0.137050035248196D+04
 0.137050035248196D+04 -.000000000000000D+00 -.000000000000000D+00 -.137050035248196D+04
 0.828792019792890D+03 0.401663003145011D+03 -.214432164795335D+03 0.681143810570203D+03
 0.574827869688385D+03 0.180090229857579D+02 0.225509942382468D+02 0.574102958989458D+03
 0.133738081548265D+04 -.419672026130768D+03 0.191881170557088D+03 -.125524676955966D+04
 0.000000000000000D+00 0.000000000000000D+00 0.000000000000000D+00 -.000000000000000D+00
 0.137050035248196D+04 0.000000000000000D+00 0.000000000000000D+00 0.137050035248196D+04
 0.137050035248196D+04 -.000000000000000D+00 -.000000000000000D+00 -.137050035248196D+04
 0.827714387105393D+03 0.401310943435200D+03 -.214271197122919D+03 0.680090793485633D+03
 0.574095226596240D+03 0.177648406933212D+02 0.226626385251774D+02 0.573372605249680D+03
 0.120594903870620D+04 -.395128978531187D+03 0.148600686924412D+03 -.112964773718488D+04
 0.133242052556085D+03 -.239468055973345D+02 0.430078716733298D+02 -.123815661550437D+03
0.399300852012D-03 0.000000000000D+00 0.000000000000D+00 0.112877181250D-03 0.000000000000D+00  6 2 -2 25 2 -2 21 0 0.48739880D+00 0.91210982D-01 0.23159266D+06 0.23159266D+06 0.23159266D+06 0.10929667D+01  1  2  2  4  6  5       -2 0.753684832215D-04 0.100000000000D+01
0.175146469668D-03 0.000000000000D+00 -.153342041006D-05 0.112877181250D-03 0.000000000000D+00  6 2 -2 25 2 -2 21 2 0.48739880D+00 0.91210982D-01 0.23159266D+06 0.23159266D+06 0.23159266D+06 0.10929667D+01  1  2  3  4  6  5       -2 0.394916058273D-04 0.100000000000D+01
-.282638094207D-03 0.000000000000D+00 0.000000000000D+00 0.112877181250D-03 0.000000000000D+00  6 2 -2 25 2 -2 21 2 0.48739880D+00 0.91210982D-01 0.23159266D+06 0.23159266D+06 0.23159266D+06 0.10929667D+01  1  2 15  4  6  5       -2 -.637285594700D-04 0.100000000000D+01
-.236456310549D-01 0.000000000000D+00 0.000000000000D+00 0.112877181250D-03 0.000000000000D+00  6 2 -2 25 2 -2 21 2 0.48739880D+00 0.91210982D-01 0.23159266D+06 0.23159266D+06 0.23159266D+06 0.10929667D+01  1  2  4  4  6  5       -2 -.533156016749D-02 0.100000000000D+01
-.329343272677D-01 0.000000000000D+00 0.000000000000D+00 0.112877181250D-03 0.000000000000D+00  6 2 -2 25 2 -2 21 2 0.48739880D+00 0.91210982D-01 0.23159266D+06 0.23159266D+06 0.23159266D+06 0.10929667D+01  1  2  5  4  6  5       -2 -.742595310719D-02 0.100000000000D+01
0.363781011354D-01 0.000000000000D+00 -.000000000000D+00 0.112877181250D-03 0.000000000000D+00  6 2 -2 25 2 -2 21 2 0.48739880D+00 0.91210982D-01 0.23159266D+06 0.23159266D+06 0.23159266D+06 0.10929667D+01  1  2  6  4  6  5       -2 0.820244697772D-02 0.100000000000D+01
  </mgrwgt>
  </event>
  <event>
  6     66 0.15870568E-05 0.54437475E+02 0.75467711E-02 0.95032003E-01
        2 -1    0    0  502    0 0.00000000E+00 0.00000000E+00 0.12505812E+04 0.12505812E+04 0.32000000E+00 0.0000E+00 0.9000E+01
       -2 -1    0    0    0  501 0.00000000E+00 0.00000000E+00 -.67101886E+03 0.67101893E+03 0.32000000E+00 0.0000E+00 0.9000E+01
       25  1    1    2    0    0 0.20270120E+03 0.40226950E+03 -.62281757E+02 0.47160634E+03 0.12500000E+03 0.0000E+00 0.9000E+01
        2  1    1    2  503    0 -.34541400E+02 0.20953147E+02 0.13069773E+03 0.13679964E+03 0.32000000E+00 0.0000E+00 0.9000E+01
       -2  1    1    2    0  501 -.12855850E+03 -.36006521E+03 -.30781880E+03 0.49084291E+03 0.32000000E+00 0.0000E+00 0.9000E+01
       21  1    1    2  502  503 -.39601292E+02 -.63157431E+02 0.81896515E+03 0.82235126E+03 0.75000000E+00 0.0000E+00 0.9000E+01
#aMCatNLO 2  0  0  4  5 0.36013575D+02 0.00000000D+00  -5  6  0 0.00000000D+00 0.00000000D+00 0.00000000D+00 0.00000000D+00 0.00000000D+00
  <mgrwgt>
 0.4461531121D-03    2    2    0
 0.916058767598975D+03 0.000000000000000D+00 0.000000000000000D+00 0.916058767598975D+03
 0.916058767598975D+03 -.000000000000000D+00 -.000000000000000D+00 -.916058767598975D+03
 0.515525288795572D+03 0.202999266377840D+03 0.402599217207776D+03 -.216440503468048D+03
 0.702400469903980D+03 -.746243274414312D+02 -.424784455210920D+02 0.697132133487876D+03
 0.614191776498398D+03 -.128374938936409D+03 -.360120771686684D+03 -.480691630019828D+03
 0.000000000000000D+00 0.000000000000000D+00 0.000000000000000D+00 0.000000000000000D+00
 0.916058767598975D+03 0.000000000000000D+00 0.000000000000000D+00 0.916058767598975D+03
 0.916058767598975D+03 -.000000000000000D+00 -.000000000000000D+00 -.916058767598975D+03
 0.514435454484956D+03 0.202769621471369D+03 0.402468496315767D+03 -.214295186396771D+03
 0.101572848651824D+03 -.343586938214880D+02 0.208469962240182D+02 0.932841170326618D+02
 0.612343360349345D+03 -.128648412997068D+03 -.360276441471397D+03 -.478136865884624D+03
 0.603765871711824D+03 -.397625146528129D+02 -.630390510683883D+02 0.599147935248733D+03
-.475806102844D-09 0.000000000000D+00 0.000000000000D+00 0.720871628283D-05 0.000000000000D+00  6 2 -2 25 2 -2 21 2 0.19239711D+00 0.10323368D+00 0.23278378D+06 0.23278378D+06 0.23278378D+06 0.10927980D+01  1  2 13  3  6  4        2 -.100281663941D-08 0.100000000000D+01
0.211686605845D-03 0.000000000000D+00 0.000000000000D+00 0.720871628283D-05 0.174701497608D-08  6 2 -2 25 2 -2 21 2 0.19239711D+00 0.10323368D+00 0.23278378D+06 0.23278378D+06 0.23278378D+06 0.10927980D+01  1  2  1  3  6  4        2 0.446154114905D-03 0.100000000000D+01
  </mgrwgt>
  </event>
  <event>
  6     66 -.15870568E-05 0.32526467E+02 0.75467711E-02 0.90925947E-01
        2 -1    0    0  503    0 0.00000000E+00 0.00000000E+00 0.19313460E+04 0.19313460E+04 0.32000000E+00 0.0000E+00 0.9000E+01
       -2 -1    0    0    0  501 0.00000000E+00 0.00000000E+00 -.12335855E+04 0.12335856E+04 0.32000000E+00 0.0000E+00 0.9000E+01
       25  1    1    2    0    0 0.20148227E+03 0.62965837E+03 -.32701757E+03 0.74808439E+03 0.12500000E+03 0.0000E+00 0.9000E+01
        2  1    1    2  502    0 0.13429956E+02 0.32663694E+02 0.10198795E+04 0.10204908E+04 0.32000000E+00 0.0000E+00 0.9000E+01
       -2  1    1    2    0  501 -.21286281E+03 -.65713718E+03 -.52425703E+03 0.86717091E+03 0.32000000E+00 0.0000E+00 0.9000E+01
       21  1    1    2  503  502 -.20494160E+01 -.51848776E+01 0.52915557E+03 0.52918547E+03 0.75000000E+00 0.0000E+00 0.9000E+01
#aMCatNLO 2  0  0  1  4 0.55752186D+01 0.00000000D+00  -5  6  0 0.00000000D+00 0.00000000D+00 0.00000000D+00 0.00000000D+00 0.00000000D+00
  <mgrwgt>
 -.1674096147D-01    3    2    0
 0.131517099569911D+04 0.000000000000000D+00 0.000000000000000D+00 0.131517099569911D+04
 0.131517099569911D+04 0.000000000000000D+00 0.000000000000000D+00 -.131517099569911D+04
 0.769230686079351D+03 0.200905274268226D+03 0.628211322499360D+03 -.375604118003150D+03
 0.957062846812020D+03 0.126831797846786D+02 0.307745059100805D+02 0.956483852181765D+03
 0.904048458506846D+03 -.213588454052904D+03 -.658985828409440D+03 -.580879734178615D+03
 0.000000000000000D+00 -.000000000000000D+00 -.000000000000000D+00 0.000000000000000D+00
 0.181151033917150D+04 0.000000000000000D+00 0.000000000000000D+00 0.181151033917150D+04
 0.131518960622305D+04 0.000000000000000D+00 0.000000000000000D+00 -.131518960622305D+04
 0.770627265826141D+03 0.201505159365106D+03 0.629728989425604D+03 -.375604118003150D+03
 0.957135540786853D+03 0.134288973255545D+02 0.326611186197355D+02 0.956483852181765D+03
 0.902585093337624D+03 -.212884640729127D+03 -.657205230409421D+03 -.580879734178615D+03
 0.496352045443926D+03 -.204941596153359D+01 -.518487763591853D+01 0.496320732948449D+03
-.274406967238D-07 0.000000000000D+00 0.000000000000D+00 0.807217573573D-05 0.000000000000D+00  6 2 -2 25 2 -2 21 2 0.29713120D+00 0.18977967D+00 0.49323164D+06 0.49323164D+06 0.49323164D+06 0.10689290D+01  1  2 13  1  6  1        2 -.424436926653D-08 0.100000000000D+01
-.210876801309D+00 0.000000000000D+00 0.000000000000D+00 0.807217573573D-05 0.000000000000D+00  6 2 -2 25 2 -2 21 2 0.30495770D+00 0.18977967D+00 0.49323164D+06 0.49323164D+06 0.49323164D+06 0.10689290D+01  1  2 13  1  6  1        2 -.305751298364D-01 0.100000000000D+01
0.894437568134D-01 0.000000000000D+00 0.000000000000D+00 0.807217573573D-05 0.748492392140D-06  6 2 -2 25 2 -2 21 2 0.29713009D+00 0.18978236D+00 0.49323164D+06 0.49323164D+06 0.49323164D+06 0.10689290D+01  1  2  1  1  6  1        2 0.138341726098D-01 0.100000000000D+01
  </mgrwgt>
  </event>
  <event>
  6     66 0.15870568E-05 0.53633972E+02 0.75467711E-02 0.95015497E-01
        2 -1    0    0  502    0 0.00000000E+00 0.00000000E+00 0.33123691E+04 0.33123691E+04 0.32000000E+00 0.0000E+00 0.9000E+01
       -2 -1    0    0    0  501 0.00000000E+00 0.00000000E+00 -.82249531E+02 0.82250153E+02 0.32000000E+00 0.0000E+00 0.9000E+01
       25  1    1    2    0    0 -.19287984E+03 0.43291666E+03 0.15532462E+04 0.16287475E+04 0.12500000E+03 0.0000E+00 0.9000E+01
        2  1    1    2  503    0 0.43919695E+02 -.57120758E+02 0.20968808E+03 0.22172261E+03 0.32000000E+00 0.0000E+00 0.9000E+01
       -2  1    1    2    0  501 0.24019402E+02 -.65565178E+02 0.44775302E+02 0.82949710E+02 0.32000000E+00 0.0000E+00 0.9000E+01
       21  1    1    2  502  503 0.12494074E+03 -.31023072E+03 0.14224100E+04 0.14611995E+04 0.75000000E+00 0.0000E+00 0.9000E+01
#aMCatNLO 2  0  0  4  1 0.26195896D+02 0.00000000D+00  -5  6  0 0.00000000D+00 0.00000000D+00 0.00000000D+00 0.00000000D+00 0.00000000D+00
  <mgrwgt>
 0.3925562643D-01    3    2    0
 0.521959661996699D+03 0.000000000000000D+00 0.000000000000000D+00 0.521959661996699D+03
 0.521959661996699D+03 -.000000000000000D+00 -.000000000000000D+00 -.521959661996699D+03
 0.492843791474357D+03 -.193989195632723D+03 0.435342552713410D+03 0.107264425398573D+02
 0.419883470917204D+03 0.170245251757190D+03 -.370364115604207D+03 0.100742767861137D+03
 0.131192061601837D+03 0.237439438755326D+02 -.649784371092028D+02 -.111469210400995D+03
 0.000000000000000D+00 0.000000000000000D+00 0.000000000000000D+00 0.000000000000000D+00
 0.521959661996699D+03 0.000000000000000D+00 0.000000000000000D+00 0.521959661996699D+03
 0.521959661996699D+03 -.000000000000000D+00 -.000000000000000D+00 -.521959661996699D+03
 0.490226587895701D+03 -.192852013937825D+03 0.432868643524373D+03 0.113993707438602D+02
 0.716608747467194D+02 0.436123178140466D+02 -.567081034320724D+02 -.417584835559650D+01
 0.131423564543004D+03 0.240477285171137D+02 -.656393126928215D+02 -.111289445589285D+03
 0.350608296807973D+03 0.125191967606665D+03 -.310521227399479D+03 0.104065923201021D+03
-.853079637874D-06 0.000000000000D+00 0.000000000000D+00 0.403540520047D-07 0.000000000000D+00  6 2 -2 25 2 -2 21 2 0.50959530D+00 0.12653823D-01 0.23345662D+06 0.23345662D+06 0.23345662D+06 0.10927030D+01  1  2 13  3  6  4        2 -.613879565120D-05 0.100000000000D+01
-.579599277195D-04 0.000000000000D+00 0.000000000000D+00 0.403540520047D-07 0.000000000000D+00  6 2 -2 25 2 -2 21 2 0.50959530D+00 0.12653823D-01 0.23345662D+06 0.23345662D+06 0.23345662D+06 0.10927030D+01  1  2 13  3  6  4        2 -.417081989104D-03 0.100000000000D+01
0.551398328491D-02 0.000000000000D+00 0.000000000000D+00 0.403540520047D-07 0.304659616453D-08  6 2 -2 25 2 -2 21 2 0.50959530D+00 0.12653823D-01 0.23345662D+06 0.23345662D+06 0.23345662D+06 0.10927030D+01  1  2  1  3  6  4        2 0.396788472112D-01 0.100000000000D+01
  </mgrwgt>
  </event>
  <event>
  6     66 0.15870568E-05 0.10721184E+03 0.75467711E-02 0.93493872E-01
        2 -1    0    0  502    0 0.00000000E+00 0.00000000E+00 0.30641396E+04 0.30641396E+04 0.32000000E+00 0.0000E+00 0.9000E+01
       -2 -1    0    0    0  501 0.00000000E+00 0.00000000E+00 -.44241498E+03 0.44241509E+03 0.32000000E+00 0.0000E+00 0.9000E+01
       25  1    1    2    0    0 0.47364532E+03 -.60283573E+02 0.58614820E+03 0.76626935E+03 0.12500000E+03 0.0000E+00 0.9000E+01
        2  1    1    2  503    0 -.15878889E+03 -.25278538E+02 0.51275181E+03 0.53737085E+03 0.32000000E+00 0.0000E+00 0.9000E+01
       -2  1    1    2    0  501 -.24897898E+03 -.89848301E+02 -.28294193E+03 0.38745257E+03 0.32000000E+00 0.0000E+00 0.9000E+01
       21  1    1    2  502  503 -.65877444E+02 0.17541041E+03 0.18057665E+04 0.18154619E+04 0.75000000E+00 0.0000E+00 0.9000E+01
#aMCatNLO 2  0  0  4  5 0.12502839D+03 0.00000000D+00  -5  6  0 0.00000000D+00 0.00000000D+00 0.00000000D+00 0.00000000D+00 0.00000000D+00
  <mgrwgt>
 0.2505145510D-03    2    2    0
 0.116431158393170D+04 0.000000000000000D+00 0.000000000000000D+00 0.116431158393170D+04
 0.116431158393170D+04 -.000000000000000D+00 -.000000000000000D+00 -.116431158393170D+04
 0.496450975327284D+03 0.476329759732871D+03 -.619648128621056D+02 0.104351743254166D+02
 0.913707774365823D+03 -.232049718640150D+03 0.155065771647745D+03 0.870039902233721D+03
 0.918464418170288D+03 -.244280041092720D+03 -.931009587856396D+02 -.880475076559137D+03
 0.000000000000000D+00 0.000000000000000D+00 0.000000000000000D+00 0.000000000000000D+00
 0.116431158393170D+04 0.000000000000000D+00 0.000000000000000D+00 0.116431158393170D+04
 0.116431158393170D+04 -.000000000000000D+00 -.000000000000000D+00 -.116431158393170D+04
 0.494029816788510D+03 0.473713627441563D+03 -.602165988377076D+02 0.202440182934201D+02
 0.231327164128547D+03 -.158447248633143D+03 -.252605971900934D+02 0.166639216554636D+03
 0.902184228103874D+03 -.249088875097941D+03 -.898874855691439D+02 -.862444985885988D+03
 0.701081958842463D+03 -.661775037104784D+02 0.175364681596945D+03 0.675561751037932D+03
-.529697621521D-09 0.000000000000D+00 0.000000000000D+00 0.445014985721D-05 0.000000000000D+00  6 2 -2 25 2 -2 21 2 0.47140610D+00 0.68063853D-01 0.30598064D+06 0.30598064D+06 0.30598064D+06 0.10839182D+01  1  2 13  3  6  4        2 -.257938000478D-09 0.100000000000D+01
0.514453466287D-03 0.000000000000D+00 0.000000000000D+00 0.445014985721D-05 0.174860560633D-09  6 2 -2 25 2 -2 21 2 0.47140610D+00 0.68063853D-01 0.30598064D+06 0.30598064D+06 0.30598064D+06 0.10839182D+01  1  2  1  3  6  4        2 0.250514808906D-03 0.100000000000D+01
  </mgrwgt>
  </event>
  <event>
  5     66 0.15870568E-05 0.36022218E+02 0.75467711E-02 0.94605350E-01
        2 -1    0    0  502    0 0.00000000E+00 0.00000000E+00 0.11379312E+04 0.11379313E+04 0.32000000E+00 0.0000E+00 0.9000E+01
       -2 -1    0    0    0  501 0.00000000E+00 0.00000000E+00 -.42223384E+03 0.42223396E+03 0.32000000E+00 0.0000E+00 0.9000E+01
       25  1    1    2    0    0 0.44999370E+03 0.18533248E+03 -.13679478E+02 0.50264757E+03 0.12500000E+03 0.0000E+00 0.9000E+01
        2  1    1    2  502    0 -.41749271E+03 -.20087118E+03 0.83004826E+03 0.95059435E+03 0.32000000E+00 0.0000E+00 0.9000E+01
       -2  1    1    2    0  501 -.32500991E+02 0.15538706E+02 -.10067138E+03 0.10692332E+03 0.32000000E+00 0.0000E+00 0.9000E+01
#aMCatNLO 1  0  0  1  4 0.22074703D+02 0.00000000D+00  -5  6  0 0.00000000D+00 0.00000000D+00 0.00000000D+00 0.00000000D+00 0.00000000D+00
  <mgrwgt>
 0.1669245714D-02    3    2    0
 0.693161742840712D+03 0.000000000000000D+00 0.000000000000000D+00 0.693161742840712D+03
 0.693161742840712D+03 0.000000000000000D+00 0.000000000000000D+00 -.693161742840712D+03
 0.572752563176538D+03 0.449995190534982D+03 0.185335191614586D+03 -.274910337873760D+03
 0.641284921347739D+03 -.417496268254481D+03 -.200872896580720D+03 0.443388425379857D+03
 0.172286001157148D+03 -.324989222805003D+02 0.155377049661335D+02 -.168478087506097D+03
 0.000000000000000D+00 0.000000000000000D+00 0.000000000000000D+00 -.000000000000000D+00
 0.811855967055426D+03 0.000000000000000D+00 0.000000000000000D+00 0.811855967055426D+03
 0.162138057485549D+04 0.000000000000000D+00 0.000000000000000D+00 -.162138057485549D+04
 0.446562122640801D+03 0.324397752430023D+03 0.546180714227663D+02 -.274910337873760D+03
 0.842623828255631D+03 -.600339839454744D+03 -.391169652896028D+03 0.443388425379857D+03
 0.187695285558337D+03 -.768549273555547D+02 -.306263675986234D+02 -.168478087506097D+03
 0.956355305456148D+03 0.352797014380275D+03 0.367177949071885D+03 -.809524607800066D+03
0.422463419498D-03 0.000000000000D+00 0.000000000000D+00 0.138750038882D-05 0.000000000000D+00  6 2 -2 25 2 -2 21 0 0.17506636D+00 0.64959065D-01 0.25089711D+06 0.25089711D+06 0.25089711D+06 0.10903421D+01  1  2  2  1  6  1        2 0.246817170313D-02 0.100000000000D+01
0.123019765009D-03 0.000000000000D+00 -.162237076805D-05 0.138750038882D-05 0.000000000000D+00  6 2 -2 25 2 -2 21 2 0.17506636D+00 0.64959065D-01 0.25089711D+06 0.25089711D+06 0.25089711D+06 0.10903421D+01  1  2  3  1  6  1        2 0.854450113254D-03 0.100000000000D+01
-.238045424098D-03 0.000000000000D+00 0.000000000000D+00 0.138750038882D-05 0.000000000000D+00  6 2 -2 25 2 -2 21 2 0.17506636D+00 0.64959065D-01 0.25089711D+06 0.25089711D+06 0.25089711D+06 0.10903421D+01  1  2 15  1  6  1        2 -.165337610233D-02 0.100000000000D+01
  </mgrwgt>
  </event>
  <event>
  5     66 -.15870568E-05 0.80748199E+02 0.75467711E-02 0.89420768E-01
        2 -1    0    0  502    0 0.00000000E+00 0.00000000E+00 0.18682973E+04 0.18682973E+04 0.32000000E+00 0.0000E+00 0.9000E+01
       -2 -1    0    0    0  501 0.00000000E+00 0.00000000E+00 -.10784414E+04 0.10784415E+04 0.32000000E+00 0.0000E+00 0.9000E+01
       25  1    1    2    0    0 0.33617457E+03 0.72239345E+03 0.18895344E+03 0.82836830E+03 0.12500000E+03 0.0000E+00 0.9000E+01
        2  1    1    2  502    0 -.73880094E+02 -.32612478E+02 0.11784847E+04 0.11812485E+04 0.32000000E+00 0.0000E+00 0.9000E+01
       -2  1    1    2    0  501 -.26229448E+03 -.68978097E+03 -.57758226E+03 0.93712195E+03 0.32000000E+00 0.0000E+00 0.9000E+01
#aMCatNLO 1  0  0  5  2 0.12839926D+02 0.00000000D+00  -5  6  0 0.00000000D+00 0.00000000D+00 0.00000000D+00 0.00000000D+00 0.00000000D+00
  <mgrwgt>
 -.4467550543D-03    8    2    0
 0.141945386550893D+04 0.000000000000000D+00 0.000000000000000D+00 0.141945386550893D+04
 0.141945386550893D+04 -.000000000000000D+00 -.000000000000000D+00 -.141945386550893D+04
 0.807329490127368D+03 0.336197522679593D+03 0.722463798276140D+03 -.342518839457613D+02
 0.898123805875282D+03 -.738711990747266D+02 -.326085516836684D+02 0.894486500168815D+03
 0.113345443501520D+04 -.262326323604867D+03 -.689855246592472D+03 -.860234616223054D+03
 0.000000000000000D+00 0.000000000000000D+00 0.000000000000000D+00 -.000000000000000D+00
 0.141945386550893D+04 0.000000000000000D+00 0.000000000000000D+00 0.141945386550893D+04
 0.141945386550893D+04 -.000000000000000D+00 -.000000000000000D+00 -.141945386550893D+04
 0.807081241395633D+03 0.336103129392266D+03 0.722215566594274D+03 -.345614235000931D+02
 0.897799577346052D+03 -.739762052597205D+02 -.328846927382422D+02 0.894142158228563D+03
 0.107261091266977D+04 -.259139329923899D+03 -.656027750116506D+03 -.808064705789054D+03
 0.614159996063940D+02 -.298759420864643D+01 -.333031237395267D+02 -.515160289394167D+02
0.516634741581D-04 0.000000000000D+00 0.000000000000D+00 0.391110562746D-05 0.000000000000D+00  6 2 -2 25 2 -2 21 0 0.28743035D+00 0.16591407D+00 0.66048058D+06 0.66048058D+06 0.66048058D+06 0.10600700D+01  1  2  2  4  6  5       -2 0.110432432309D-04 0.100000000000D+01
0.206440173466D-04 0.000000000000D+00 -.198401344072D-06 0.391110562746D-05 0.000000000000D+00  6 2 -2 25 2 -2 21 2 0.28743035D+00 0.16591407D+00 0.66048058D+06 0.66048058D+06 0.66048058D+06 0.10600700D+01  1  2  3  4  6  5       -2 0.495879699810D-05 0.100000000000D+01
-.291560567242D-04 0.000000000000D+00 0.000000000000D+00 0.391110562746D-05 0.000000000000D+00  6 2 -2 25 2 -2 21 2 0.28743035D+00 0.16591407D+00 0.66048058D+06 0.66048058D+06 0.66048058D+06 0.10600700D+01  1  2 15  4  6  5       -2 -.700343175136D-05 0.100000000000D+01
0.770885486151D-09 0.000000000000D+00 0.000000000000D+00 0.391110562746D-05 0.000000000000D+00  6 2 -2 25 2 -2 21 2 0.28743035D+00 0.16591407D+00 0.66104116D+06 0.66104116D+06 0.66104116D+06 0.10600446D+01  1  2 12  4  6  5       -2 0.185150001716D-09 0.100000000000D+01
0.367340118239D-02 0.000000000000D+00 0.000000000000D+00 0.391110562746D-05 0.000000000000D+00  6 2 -2 25 2 -2 21 2 0.28743035D+00 0.16591407D+00 0.66104116D+06 0.66104116D+06 0.66104116D+06 0.10600446D+01  1  2 12  4  6  5       -2 0.882271423502D-03 0.100000000000D+01
-.581549203228D-02 0.000000000000D+00 0.000000000000D+00 0.391110562746D-05 0.000000000000D+00  6 2 -2 25 2 -2 21 2 0.28743035D+00 0.16591407D+00 0.66048058D+06 0.66048058D+06 0.66048058D+06 0.10600700D+01  1  2  4  4  6  5       -2 -.139691049218D-02 0.100000000000D+01
-.440509189328D-02 0.000000000000D+00 0.000000000000D+00 0.391110562746D-05 0.000000000000D+00  6 2 -2 25 2 -2 21 2 0.28743035D+00 0.16591407D+00 0.66048058D+06 0.66048058D+06 0.66048058D+06 0.10600700D+01  1  2  5  4  6  5       -2 -.105812527136D-02 0.100000000000D+01
0.465023754440D-02 0.000000000000D+00 -.000000000000D+00 0.391110562746D-05 0.000000000000D+00  6 2 -2 25 2 -2 21 2 0.28743035D+00 0.16591407D+00 0.66048058D+06 0.66048058D+06 0.66048058D+06 0.10600700D+01  1  2  6  4  6  5       -2 0.111701049212D-02 0.100000000000D+01
  </mgrwgt>
  </event>
  <event>
  5     66 0.15870568E-05 0.26159881E+02 0.75467711E-02 0.94796890E-01
        2 -1    0    0  502    0 0.00000000E+00 0.00000000E+00 0.24541808E+04 0.24541809E+04 0.32000000E+00 0.0000E+00 0.9000E+01
       -2 -1    0    0    0  501 0.00000000E+00 0.00000000E+00 -.73631498E+03 0.73631505E+03 0.32000000E+00 0.0000E+00 0.9000E+01
       25  1    1    2    0    0 0.44175734E+03 0.10240397E+03 0.14968774E+04 0.15690453E+04 0.12500000E+03 0.0000E+00 0.9000E+01
        2  1    1    2  502    0 -.18518433E+02 0.18493330E+02 0.85182598E+03 0.85222799E+03 0.32000000E+00 0.0000E+00 0.9000E+01
       -2  1    1    2    0  501 -.42323891E+03 -.12089730E+03 -.63083755E+03 0.76922263E+03 0.32000000E+00 0.0000E+00 0.9000E+01
#aMCatNLO 1  0  0  4  5 0.16127138D+02 0.00000000D+00  -5  6  0 0.00000000D+00 0.00000000D+00 0.00000000D+00 0.00000000D+00 0.00000000D+00
  <mgrwgt>
 0.2081271506D-02    6    2    0
 0.134426569677860D+04 0.000000000000000D+00 0.000000000000000D+00 0.134426569677860D+04
 0.134426569677860D+04 -.000000000000000D+00 -.000000000000000D+00 -.134426569677860D+04
 0.905740904776292D+03 0.441799126210295D+03 0.102425689820231D+03 0.773992310510670D+03
 0.466857173179101D+03 -.185103710499495D+02 0.184852787352086D+02 0.466123675415073D+03
 0.131593331560182D+04 -.423288755160345D+03 -.120910968555439D+03 -.124011598592574D+04
 0.000000000000000D+00 0.000000000000000D+00 0.000000000000000D+00 0.000000000000000D+00
 0.134426569677860D+04 0.000000000000000D+00 0.000000000000000D+00 0.134426569677860D+04
 0.134426569677860D+04 -.000000000000000D+00 -.000000000000000D+00 -.134426569677860D+04
 0.907248993508714D+03 0.441727826552552D+03 0.102496892825483D+03 0.775787761203317D+03
 0.215204818312515D+03 -.129947835317685D+02 -.263583242589695D+02 0.213188855637775D+03
 0.131350346097333D+04 -.423392163316344D+03 -.120807700577614D+03 -.123751198681563D+04
 0.252574120762648D+03 -.534087970444006D+01 0.446691320111003D+02 0.248535369974542D+03
0.866127486716D-03 0.000000000000D+00 0.000000000000D+00 0.105390121332D-03 0.000000000000D+00  6 2 -2 25 2 -2 21 0 0.37756629D+00 0.11327924D+00 0.21940181D+06 0.21940181D+06 0.21940181D+06 0.10947504D+01  1  2  2  3  6  4        2 0.264502648253D-03 0.100000000000D+01
0.349699771017D-03 0.000000000000D+00 -.332615760559D-05 0.105390121332D-03 0.000000000000D+00  6 2 -2 25 2 -2 21 2 0.37756629D+00 0.11327924D+00 0.21940181D+06 0.21940181D+06 0.21940181D+06 0.10947504D+01  1  2  3  3  6  4        2 0.127989338778D-03 0.100000000000D+01
-.635145994909D-03 0.000000000000D+00 0.000000000000D+00 0.105390121332D-03 0.000000000000D+00  6 2 -2 25 2 -2 21 2 0.37756629D+00 0.11327924D+00 0.21940181D+06 0.21940181D+06 0.21940181D+06 0.10947504D+01  1  2 15  3  6  4        2 -.232462022150D-03 0.100000000000D+01
-.274095430323D-03 0.000000000000D+00 0.000000000000D+00 0.105390121332D-03 0.000000000000D+00  6 2 -2 25 2 -2 21 2 0.37756629D+00 0.11327924D+00 0.21940181D+06 0.21940181D+06 0.21940181D+06 0.10947504D+01  1  2  4  3  6  4        2 -.100318318159D-03 0.100000000000D+01
-.564951628160D-02 0.000000000000D+00 0.000000000000D+00 0.105390121332D-03 0.000000000000D+00  6 2 -2 25 2 -2 21 2 0.37756629D+00 0.11327924D+00 0.21940181D+06 0.21940181D+06 0.21940181D+06 0.10947504D+01  1  2  5  3  6  4        2 -.206771039968D-02 0.100000000000D+01
0.111729374239D-01 0.000000000000D+00 -.000000000000D+00 0.105390121332D-03 0.000000000000D+00  6 2 -2 25 2 -2 21 2 0.37756629D+00 0.11327924D+00 0.21940181D+06 0.21940181D+06 0.21940181D+06 0.10947504D+01  1  2  6  3  6  4        2 0.408927025871D-02 0.100000000000D+01
  </mgrwgt>
  </event>
  <event>
  5     66 -.15870568E-05 0.29017151E+02 0.75467711E-02 0.93402325E-01
        2 -1    0    0  502    0 0.00000000E+00 0.00000000E+00 0.34422787E+04 0.34422787E+04 0.32000000E+00 0.0000E+00 0.9000E+01
       -2 -1    0    0    0  501 0.00000000E+00 0.00000000E+00 -.40180724E+03 0.40180737E+03 0.32000000E+00 0.0000E+00 0.9000E+01
       25  1    1    2    0    0 0.54999795E+03 0.14766748E+02 0.68966842E+03 0.89105742E+03 0.12500000E+03 0.0000E+00 0.9000E+01
        2  1    1    2  502    0 -.28279930E+02 0.65120435E+01 0.24254013E+04 0.24255749E+04 0.32000000E+00 0.0000E+00 0.9000E+01
       -2  1    1    2    0  501 -.52171802E+03 -.21278791E+02 -.74598227E+02 0.52745377E+03 0.32000000E+00 0.0000E+00 0.9000E+01
#aMCatNLO 1  0  0  2  5 0.31614773D+03 0.00000000D+00  -5  6  0 0.00000000D+00 0.00000000D+00 0.00000000D+00 0.00000000D+00 0.00000000D+00
  <mgrwgt>
 -.3436311788D-03    1    2    0
 0.117606665899501D+04 0.000000000000000D+00 0.000000000000000D+00 0.117606665899501D+04
 0.117606665899501D+04 0.000000000000000D+00 0.000000000000000D+00 -.117606665899501D+04
 0.564813904923938D+03 0.550059212742744D+03 0.147696322952788D+02 -.246265635873522D+02
 0.828848819373985D+03 -.282771412671566D+02 0.651140126327842D+01 0.828340733220934D+03
 0.958470593692093D+03 -.521782071475588D+03 -.212810335585572D+02 -.803714169633582D+03
 0.000000000000000D+00 0.000000000000000D+00 -.000000000000000D+00 -.000000000000000D+00
 0.119869112742648D+04 0.000000000000000D+00 0.000000000000000D+00 0.119869112742648D+04
 0.121953431593999D+04 0.000000000000000D+00 0.000000000000000D+00 -.121953431593999D+04
 0.553497281144604D+03 0.538128196614575D+03 0.233627183498072D+02 -.246265635873522D+02
 0.829838983131765D+03 -.459733166875825D+02 0.192567329760339D+02 0.828340733220934D+03
 0.969610404375422D+03 -.542352343660051D+03 -.646568865018588D+01 -.803714169633582D+03
 0.652787747146728D+02 0.501974637330584D+02 -.361537626756552D+02 -.208431885135095D+02
-.103306427348D-02 0.000000000000D+00 0.000000000000D+00 0.374745539511D-04 0.000000000000D+00  6 2 -2 25 2 -2 21 2 0.52958135D+00 0.61816510D-01 0.31109053D+06 0.31109053D+06 0.31109053D+06 0.10833874D+01  1  2 14  2  6  2       -2 -.343631178843D-03 0.100000000000D+01
  </mgrwgt>
  </event>
  <event>
  5     66 0.15870568E-05 0.92641058E+02 0.75467711E-02 0.93780202E-01
        2 -1    0    0  502    0 0.00000000E+00 0.00000000E+00 0.26559005E+04 0.26559005E+04 0.32000000E+00 0.0000E+00 0.9000E+01
       -2 -1    0    0    0  501 0.00000000E+00 0.00000000E+00 -.57528571E+03 0.57528579E+03 0.32000000E+00 0.0000E+00 0.9000E+01
       25  1    1    2    0    0 -.46270508E+03 -.10771257E+03 0.27607335E+03 0.56350642E+03 0.12500000E+03 0.0000E+00 0.9000E+01
        2  1    1    2  502    0 -.30990048E+02 0.87309358E+02 0.20933172E+04 0.20953664E+04 0.32000000E+00 0.0000E+00 0.9000E+01
       -2  1    1    2    0  501 0.49369513E+03 0.20403214E+02 -.28877577E+03 0.57231349E+03 0.32000000E+00 0.0000E+00 0.9000E+01
#aMCatNLO 1  0  0  4  1 0.10459811D+01 0.00000000D+00  -5  6  0 0.00000000D+00 0.00000000D+00 0.00000000D+00 0.00000000D+00 0.00000000D+00
  <mgrwgt>
 0.3202783858D-02    9    2    0
 0.123608322695875D+04 0.000000000000000D+00 0.000000000000000D+00 0.123608322695875D+04
 0.123608322695875D+04 -.000000000000000D+00 -.000000000000000D+00 -.123608322695875D+04
 0.504209580667956D+03 -.462757911198549D+03 -.107713443688011D+03 -.113380910692153D+03
 0.976875903571359D+03 -.309883483106276D+02 0.873045692245225D+02 0.972473220937142D+03
 0.991080969678180D+03 0.493746259509177D+03 0.204088744634880D+02 -.859092310244989D+03
 0.000000000000000D+00 0.000000000000000D+00 0.000000000000000D+00 0.000000000000000D+00
 0.123608322695875D+04 0.000000000000000D+00 0.000000000000000D+00 0.123608322695875D+04
 0.123608322695875D+04 -.000000000000000D+00 -.000000000000000D+00 -.123608322695875D+04
 0.504209400603802D+03 -.462757937910919D+03 -.107713368430307D+03 -.113380072407265D+03
 0.818802649398108D+03 -.266950670455689D+02 0.724209792293568D+02 0.815156643734353D+03
 0.991079518264383D+03 0.493746207003022D+03 0.204090223909353D+02 -.859090662502123D+03
 0.158074885651203D+03 -.429320204653389D+01 0.148833668100152D+02 0.157314091175034D+03
0.595588324648D-05 0.000000000000D+00 0.000000000000D+00 0.156088433327D-04 0.000000000000D+00  6 2 -2 25 2 -2 21 0 0.40860008D+00 0.88505502D-01 0.29057773D+06 0.29057773D+06 0.29057773D+06 0.10855787D+01  1  2  2  3  6  4        2 0.246112494627D-05 0.100000000000D+01
0.171462049077D-05 0.000000000000D+00 -.228721598866D-07 0.156088433327D-04 0.000000000000D+00  6 2 -2 25 2 -2 21 2 0.40860008D+00 0.88505502D-01 0.29057773D+06 0.29057773D+06 0.29057773D+06 0.10855787D+01  1  2  3  3  6  4        2 0.834983943436D-06 0.100000000000D+01
-.369883911341D-05 0.000000000000D+00 0.000000000000D+00 0.156088433327D-04 0.000000000000D+00  6 2 -2 25 2 -2 21 2 0.40860008D+00 0.88505502D-01 0.29057773D+06 0.29057773D+06 0.29057773D+06 0.10855787D+01  1  2 15  3  6  4        2 -.180125647960D-05 0.100000000000D+01
0.231266467570D-12 0.000000000000D+00 0.000000000000D+00 0.156088433327D-04 0.000000000000D+00  6 2 -2 25 2 -2 21 2 0.40860008D+00 0.88505502D-01 0.29059577D+06 0.29059577D+06 0.29059577D+06 0.10855767D+01  1  2 12  3  6  4        2 0.112620907205D-12 0.100000000000D+01
0.369439022504D-05 0.000000000000D+00 0.000000000000D+00 0.156088433327D-04 0.000000000000D+00  6 2 -2 25 2 -2 21 2 0.40860008D+00 0.88505502D-01 0.29059577D+06 0.29059577D+06 0.29059577D+06 0.10855767D+01  1  2 12  3  6  4        2 0.179907438846D-05 0.100000000000D+01
-.290009222127D+00 0.000000000000D+00 0.000000000000D+00 0.156088433327D-04 0.000000000000D+00  6 2 -2 25 2 -2 21 2 0.40860008D+00 0.88505502D-01 0.29057773D+06 0.29057773D+06 0.29057773D+06 0.10855787D+01  1  2  4  3  6  4        2 -.141228362327D+00 0.100000000000D+01
-.267244390737D+00 0.000000000000D+00 0.000000000000D+00 0.156088433327D-04 0.000000000000D+00  6 2 -2 25 2 -2 21 2 0.40860008D+00 0.88505502D-01 0.29057773D+06 0.29057773D+06 0.29057773D+06 0.10855787D+01  1  2  5  3  6  4        2 -.130142370536D+00 0.100000000000D+01
0.313934050740D+00 0.000000000000D+00 -.000000000000D+00 0.156088433327D-04 0.000000000000D+00  6 2 -2 25 2 -2 21 2 0.40860008D+00 0.88505502D-01 0.29057773D+06 0.29057773D+06 0.29057773D+06 0.10855787D+01  1  2  6  3  6  4        2 0.152879248252D+00 0.100000000000D+01
0.249891805313D+00 0.000000000000D+00 0.000000000000D+00 0.156088433327D-04 0.598437521850D-04  6 2 -2 25 2 -2 21 2 0.40860008D+00 0.88505502D-01 0.29059577D+06 0.29059577D+06 0.29059577D+06 0.10855767D+01  1  2 11  3  6  4        2 0.121690974542D+00 0.100000000000D+01
  </mgrwgt>
  </event>
  <event>
  6     66 0.15870568E-05 0.33162555E+02 0.75467711E-02 0.90090566E-01
        2 -1    0    0  502    0 0.00000000E+00 0.00000000E+00 0.26872116E+04 0.26872116E+04 0.32000000E+00 0.0000E+00 0.9000E+01
       -2 -1    0    0    0  501 0.00000000E+00 0.00000000E+00 -.18679788E+04 0.18679789E+04 0.32000000E+00 0.0000E+00 0.9000E+01
       25  1    1    2    0    0 0.44484637E+03 -.58578106E+03 -.73747368E+02 0.74972756E+03 0.12500000E+03 0.0000E+00 0.9000E+01
        2  1    1    2  502    0 -.47485837E+03 0.52221298E+03 0.22943555E+04 0.24004716E+04 0.32000000E+00 0.0000E+00 0.9000E+01
       -2  1    1    2    0  503 0.74840422E+01 0.23865895E+02 -.10899772E+04 0.10902642E+04 0.32000000E+00 0.0000E+00 0.9000E+01
       21  1    1    2  503  501 0.22527964E+02 0.39702182E+02 -.31139813E+03 0.31472707E+03 0.75000000E+00 0.0000E+00 0.9000E+01
#aMCatNLO 2  0  0  5  4 0.30059598D+02 0.00000000D+00  -5  6  0 0.00000000D+00 0.00000000D+00 0.00000000D+00 0.00000000D+00 0.00000000D+00
  <mgrwgt>
 0.5781929192D-03    2    2    0
 0.224045853672432D+04 0.000000000000000D+00 0.000000000000000D+00 0.224045853672432D+04
 0.224045853672432D+04 -.000000000000000D+00 -.000000000000000D+00 -.224045853672432D+04
 0.775565684926943D+03 0.444840657954966D+03 -.585791088733778D+03 -.211760999776839D+03
 0.202143534137554D+04 -.474869873822227D+03 0.522185617717580D+03 0.189420738646723D+04
 0.168391604714616D+04 0.300292158672609D+02 0.636054710161965D+02 -.168244638669039D+04
 0.000000000000000D+00 0.000000000000000D+00 0.000000000000000D+00 0.000000000000000D+00
 0.224045853672432D+04 0.000000000000000D+00 0.000000000000000D+00 0.224045853672432D+04
 0.224045853672432D+04 -.000000000000000D+00 -.000000000000000D+00 -.224045853672432D+04
 0.775633842995533D+03 0.444845430784760D+03 -.585780979309393D+03 -.212028407033748D+03
 0.202078627084922D+04 -.474857436456563D+03 0.522211961545697D+03 0.189351055838439D+04
 0.130753607254005D+04 0.747735093073433D+01 0.238547618515411D+02 -.130729706668130D+04
 0.376960887063848D+03 0.225346547410676D+02 0.397142559121533D+02 -.374185084669349D+03
-.539045716173D-09 0.000000000000D+00 0.000000000000D+00 0.103829957595D-03 0.000000000000D+00  6 2 -2 25 2 -2 21 2 0.41341717D+00 0.28738136D+00 0.57956371D+06 0.57956371D+06 0.57956371D+06 0.10640073D+01  1  2 13  4  6  5       -2 -.681135413925D-11 0.100000000000D+01
0.457577764260D-01 0.000000000000D+00 0.000000000000D+00 0.103829957595D-03 0.370661604692D-07  6 2 -2 25 2 -2 21 2 0.41341717D+00 0.28738136D+00 0.57956371D+06 0.57956371D+06 0.57956371D+06 0.10640073D+01  1  2  1  4  6  5       -2 0.578192925963D-03 0.100000000000D+01
  </mgrwgt>
  </event>
  <event>
  5     66 0.15870568E-05 0.20786293E+02 0.75467711E-02 0.90430188E-01
        2 -1    0    0  502    0 0.00000000E+00 0.00000000E+00 0.12267965E+04 0.12267965E+04 0.32000000E+00 0.0000E+00 0.9000E+01
       -2 -1    0    0    0  501 -.00000000E+00 -.00000000E+00 -.21513153E+04 0.21513153E+04 0.32000000E+00 0.0000E+00 0.9000E+01
       25  1    1    2    0    0 0.65907643E+03 0.30515273E+03 -.93662182E+03 0.11917992E+04 0.12500000E+03 0.0000E+00 0.9000E+01
        2  1    1    2  502    0 -.20546239E+02 -.31554854E+01 0.98434979E+03 0.98456931E+03 0.32000000E+00 0.0000E+00 0.9000E+01
       -2  1    1    2    0  501 -.63853019E+03 -.30199725E+03 -.97224679E+03 0.12017433E+04 0.32000000E+00 0.0000E+00 0.9000E+01
#aMCatNLO 1  0  0  5  2 0.22609703D+02 0.00000000D+00  -5  6  0 0.00000000D+00 0.00000000D+00 0.00000000D+00 0.00000000D+00 0.00000000D+00
  <mgrwgt>
 0.1449102271D-03    6    2    0
 0.162456953676432D+04 0.000000000000000D+00 0.000000000000000D+00 0.162456953676432D+04
 0.162456953676432D+04 -.000000000000000D+00 -.000000000000000D+00 -.162456953676432D+04
 0.972622087169030D+03 0.659130278401008D+03 0.305178084719223D+03 -.634651350862154D+03
 0.130368786333567D+04 -.205454058983182D+02 -.315535742508599D+01 0.130352214213058D+04
 0.972829123023936D+03 -.638584872502690D+03 -.302022727294137D+03 -.668870791268429D+03
 0.000000000000000D+00 -.000000000000000D+00 0.000000000000000D+00 0.000000000000000D+00
 0.162456953676432D+04 0.000000000000000D+00 0.000000000000000D+00 0.162456953676432D+04
 0.162456953676432D+04 -.000000000000000D+00 -.000000000000000D+00 -.162456953676432D+04
 0.972250592480277D+03 0.656466639314207D+03 0.303918299879081D+03 -.637441317333893D+03
 0.130001969465710D+04 -.241113654054053D+02 -.484190037673782D+01 0.129978706123556D+04
 0.213636626022274D+03 -.870965041157804D+02 -.103357177343664D+03 -.165445159616536D+03
 0.763232160368980D+03 -.545258769793022D+03 -.195719222158679D+03 -.496900584285129D+03
0.401261019179D-02 0.000000000000D+00 0.000000000000D+00 0.169148671219D-04 0.000000000000D+00  6 2 -2 25 2 -2 21 0 0.18873793D+00 0.33097159D+00 0.53598527D+06 0.53598527D+06 0.53598527D+06 0.10663838D+01  1  2  2  4  6  5       -2 0.156928801552D-03 0.100000000000D+01
0.413975523390D-02 0.000000000000D+00 -.154094796810D-04 0.169148671219D-04 0.000000000000D+00  6 2 -2 25 2 -2 21 2 0.18873793D+00 0.33097159D+00 0.53598527D+06 0.53598527D+06 0.53598527D+06 0.10663838D+01  1  2  3  4  6  5       -2 0.184110004393D-03 0.100000000000D+01
-.264577890220D-02 0.000000000000D+00 0.000000000000D+00 0.169148671219D-04 0.000000000000D+00  6 2 -2 25 2 -2 21 2 0.18873793D+00 0.33097159D+00 0.53598527D+06 0.53598527D+06 0.53598527D+06 0.10663838D+01  1  2 15  4  6  5       -2 -.117667431475D-03 0.100000000000D+01
-.102610775235D-01 0.000000000000D+00 0.000000000000D+00 0.169148671219D-04 0.000000000000D+00  6 2 -2 25 2 -2 21 2 0.18873793D+00 0.33097159D+00 0.53598527D+06 0.53598527D+06 0.53598527D+06 0.10663838D+01  1  2  4  4  6  5       -2 -.456347518438D-03 0.100000000000D+01
-.932409373189D-02 0.000000000000D+00 0.000000000000D+00 0.169148671219D-04 0.000000000000D+00  6 2 -2 25 2 -2 21 2 0.18873793D+00 0.33097159D+00 0.53598527D+06 0.53598527D+06 0.53598527D+06 0.10663838D+01  1  2  5  4  6  5       -2 -.414676433980D-03 0.100000000000D+01
0.178209545503D-01 0.000000000000D+00 -.000000000000D+00 0.169148671219D-04 0.000000000000D+00  6 2 -2 25 2 -2 21 2 0.18873793D+00 0.33097159D+00 0.53598527D+06 0.53598527D+06 0.53598527D+06 0.10663838D+01  1  2  6  4  6  5       -2 0.792562805085D-03 0.100000000000D+01
  </mgrwgt>
  </event>
  <event>
  5     66 -.15870568E-05 0.12814610E+03 0.75467711E-02 0.93595727E-01
        2 -1    0    0  502    0 0.00000000E+00 0.00000000E+00 0.18084431E+04 0.18084431E+04 0.32000000E+00 0.0000E+00 0.9000E+01
       -2 -1    0    0    0  501 0.00000000E+00 0.00000000E+00 -.49021722E+03 0.49021732E+03 0.32000000E+00 0.0000E+00 0.9000E+01
       25  1    1    2    0    0 0.53335474E+03 0.53971048E+02 0.27114376E+03 0.61361559E+03 0.12500000E+03 0.0000E+00 0.9000E+01
        2  1    1    2  502    0 -.12813558E+03 -.26337947E+01 0.12305984E+04 0.12372543E+04 0.32000000E+00 0.0000E+00 0.9000E+01
       -2  1    1    2    0  501 -.40521917E+03 -.51337253E+02 -.18351626E+03 0.44779058E+03 0.32000000E+00 0.0000E+00 0.9000E+01
#aMCatNLO 1  0  0  2  5 0.14811114D+02 0.00000000D+00  -5  6  0 0.00000000D+00 0.00000000D+00 0.00000000D+00 0.00000000D+00 0.00000000D+00
  <mgrwgt>
 -.7925503230D-03   11    4    0
 0.941557277057122D+03 0.000000000000000D+00 0.000000000000000D+00 0.941557277057122D+03
 0.941557277057122D+03 0.000000000000000D+00 0.000000000000000D+00 -.941557277057122D+03
 0.559247550386047D+03 0.533405950542374D+03 0.539784379261048D+02 -.984745793483713D+02
 0.648745967817796D+03 -.128119036187353D+03 -.263345466482689D+01 0.635963763309515D+03
 0.675121035910400D+03 -.405286914355021D+03 -.513449832612779D+02 -.537489183961144D+03
 0.000000000000000D+00 -.000000000000000D+00 0.000000000000000D+00 -.000000000000000D+00
 0.942055490831432D+03 0.000000000000000D+00 0.000000000000000D+00 0.942055490831432D+03
 0.105849819133543D+04 0.000000000000000D+00 0.000000000000000D+00 -.105849819133543D+04
 0.563238713609104D+03 0.537693420457847D+03 0.529281713885928D+02 -.984745793483713D+02
 0.647792214936424D+03 -.123166754247584D+03 -.384657478186666D+01 0.635963763309515D+03
 0.672141871018256D+03 -.400140883292573D+03 -.526055645207242D+02 -.537489183961144D+03
 0.117380882603079D+03 -.143857829176897D+02 0.352396791399815D+01 -.116442700503999D+03
 0.941557277057122D+03 0.000000000000000D+00 0.000000000000000D+00 0.941557277057122D+03
 0.941557277057122D+03 0.000000000000000D+00 0.000000000000000D+00 -.941557277057122D+03
 0.559247550386047D+03 0.533405950542374D+03 0.539784379261048D+02 -.984745793483713D+02
 0.648745967817796D+03 -.128119036187353D+03 -.263345466482689D+01 0.635963763309515D+03
 0.000000000000000D+00 -.000000000000000D+00 0.000000000000000D+00 -.000000000000000D+00
 0.675121035910400D+03 -.405286914355021D+03 -.513449832612779D+02 -.537489183961144D+03
 0.942055490831432D+03 0.000000000000000D+00 0.000000000000000D+00 0.942055490831432D+03
 0.105849819133543D+04 0.000000000000000D+00 0.000000000000000D+00 -.105849819133543D+04
 0.563238713609104D+03 0.537693420457847D+03 0.529281713885928D+02 -.984745793483713D+02
 0.647792214936424D+03 -.123166754247584D+03 -.384657478186666D+01 0.635963763309515D+03
 0.117380882603079D+03 -.143857829176897D+02 0.352396791399815D+01 -.116442700503999D+03
 0.672141871018256D+03 -.400140883292573D+03 -.526055645207242D+02 -.537489183961144D+03
0.313812096451D-05 0.000000000000D+00 0.000000000000D+00 0.211282255382D-05 0.000000000000D+00  6 2 -2 25 2 -2 21 0 0.27822203D+00 0.75418044D-01 0.29549109D+06 0.29549109D+06 0.29549109D+06 0.10850388D+01  1  2  2  2  6  2       -2 0.557912210082D-05 0.100000000000D+01
0.561264952510D-06 0.000000000000D+00 -.120512107900D-07 0.211282255382D-05 0.000000000000D+00  6 2 -2 25 2 -2 21 2 0.27822203D+00 0.75418044D-01 0.29549109D+06 0.29549109D+06 0.29549109D+06 0.10850388D+01  1  2  3  2  6  2       -2 0.117477483857D-05 0.100000000000D+01
-.208520942283D-05 0.000000000000D+00 0.000000000000D+00 0.211282255382D-05 0.000000000000D+00  6 2 -2 25 2 -2 21 2 0.27822203D+00 0.75418044D-01 0.29549109D+06 0.29549109D+06 0.29549109D+06 0.10850388D+01  1  2 15  2  6  2       -2 -.436451902464D-05 0.100000000000D+01
0.169472251020D-08 0.000000000000D+00 0.000000000000D+00 0.211282255382D-05 0.000000000000D+00  6 2 -2 25 2 -2 21 2 0.27822203D+00 0.84803417D-01 0.30040560D+06 0.30040560D+06 0.30040560D+06 0.10845085D+01  1  2 12  2  6  2       -2 0.271859856886D-08 0.100000000000D+01
0.758073712076D-03 0.000000000000D+00 0.000000000000D+00 0.211282255382D-05 0.000000000000D+00  6 2 -2 25 2 -2 21 2 0.27822203D+00 0.85070297D-01 0.30040560D+06 0.30040560D+06 0.30040560D+06 0.10845085D+01  1  2 12  2  6  2       -2 0.120734048390D-02 0.100000000000D+01
-.113324791586D-02 0.000000000000D+00 0.000000000000D+00 0.211282255382D-05 0.000000000000D+00  6 2 -2 25 2 -2 21 2 0.27822203D+00 0.75418044D-01 0.29549109D+06 0.29549109D+06 0.29549109D+06 0.10850388D+01  1  2  4  2  6  2       -2 -.237198337696D-02 0.100000000000D+01
-.797639110903D-03 0.000000000000D+00 -.700341888391D-05 0.211282255382D-05 0.000000000000D+00  6 2 -2 25 2 -2 21 2 0.27822203D+00 0.84804574D-01 0.29549109D+06 0.29549109D+06 0.29549109D+06 0.10850388D+01  1  2  5  2  6  2       -2 -.128203952353D-02 0.100000000000D+01
0.793046133862D-03 0.000000000000D+00 0.695551015856D-05 0.211282255382D-05 0.000000000000D+00  6 2 -2 25 2 -2 21 2 0.27822203D+00 0.75418044D-01 0.29549109D+06 0.29549109D+06 0.29549109D+06 0.10850388D+01  1  2  6  2  6  2       -2 0.165991238135D-02 0.100000000000D+01
0.315423259696D-10 0.000000000000D+00 0.000000000000D+00 0.211282255382D-05 0.000000000000D+00  6 2 21 25 2 2 -2 2 0.27822203D+00 0.84803417D-01 0.30040560D+06 0.30040560D+06 0.30040560D+06 0.10845085D+01  3  4 12  6  5  2       -2 0.479785498118D-09 0.100000000000D+01
0.144269629283D-04 0.000000000000D+00 0.000000000000D+00 0.211282255382D-05 0.000000000000D+00  6 2 21 25 2 2 -2 2 0.27822203D+00 0.85070297D-01 0.30040560D+06 0.30040560D+06 0.30040560D+06 0.10845085D+01  3  4 12  6  5  2       -2 0.217750133872D-03 0.100000000000D+01
-.148161238810D-04 0.000000000000D+00 -.130361043720D-06 0.211282255382D-05 0.000000000000D+00  6 2 21 25 2 2 -2 2 0.27822203D+00 0.84804574D-01 0.29549109D+06 0.29549109D+06 0.29549109D+06 0.10850388D+01  3  4  5  6  5  2       -2 -.225922997939D-03 0.100000000000D+01
  </mgrwgt>
  </event>
  <event>
  5     66 0.15870568E-05 0.13984413E+03 0.75467711E-02 0.95065660E-01
        2 -1    0    0  502    0 0.00000000E+00 0.00000000E+00 0.16566015E+04 0.16566015E+04 0.32000000E+00 0.0000E+00 0.9000E+01
       -2 -1    0    0    0  501 0.00000000E+00 0.00000000E+00 -.13839479E+04 0.13839479E+04 0.32000000E+00 0.0000E+00 0.9000E+01
       25  1    1    2    0    0 0.11273953E+03 0.44531002E+03 -.33540036E+02 0.47724329E+03 0.12500000E+03 0.0000E+00 0.9000E+01
        2  1    1    2  502    0 -.14380642E+02 -.34591765E+03 0.14093858E+04 0.14512871E+04 0.32000000E+00 0.0000E+00 0.9000E+01
       -2  1    1    2    0  501 -.98358891E+02 -.99392371E+02 -.11031922E+04 0.11120191E+04 0.32000000E+00 0.0000E+00 0.9000E+01
#aMCatNLO 1  0  0  2  5 0.43392375D+02 0.00000000D+00  -5  6  0 0.00000000D+00 0.00000000D+00 0.00000000D+00 0.00000000D+00 0.00000000D+00
  <mgrwgt>
 0.4593133637D-02    5    4    0
 0.151414999225273D+04 0.000000000000000D+00 0.000000000000000D+00 0.151414999225273D+04
 0.151414999225273D+04 0.000000000000000D+00 0.000000000000000D+00 -.151414999225273D+04
 0.482187012017087D+03 0.112746637312447D+03 0.445311177010542D+03 -.765863301261280D+02
 0.133023643342638D+04 -.143803528118694D+02 -.345910704361594D+03 0.128439400453132D+04
 0.121587653906199D+04 -.983662845005779D+02 -.994004726489476D+02 -.120780767440520D+04
 0.000000000000000D+00 -.000000000000000D+00 0.000000000000000D+00 -.000000000000000D+00
 0.201956471183351D+04 0.000000000000000D+00 0.000000000000000D+00 0.201956471183351D+04
 0.306686053848624D+04 0.000000000000000D+00 0.000000000000000D+00 -.306686053848624D+04
 0.348812134751713D+03 0.165150280603154D+03 0.270008933564353D+03 -.765863301261280D+02
 0.161725368485779D+04 0.171491343160425D+03 -.967694291360204D+03 0.128439400453132D+04
 0.137080559834635D+04 0.647524967427711D+02 -.645070325058586D+03 -.120780767440520D+04
 0.174955383236389D+04 -.401394120506350D+03 0.134275568285444D+04 -.104729582665273D+04
 0.151414999225273D+04 0.000000000000000D+00 0.000000000000000D+00 0.151414999225273D+04
 0.151414999225273D+04 0.000000000000000D+00 0.000000000000000D+00 -.151414999225273D+04
 0.482187012017087D+03 0.112746637312447D+03 0.445311177010542D+03 -.765863301261280D+02
 0.133023643342638D+04 -.143803528118694D+02 -.345910704361594D+03 0.128439400453132D+04
 0.000000000000000D+00 -.000000000000000D+00 0.000000000000000D+00 -.000000000000000D+00
 0.121587653906199D+04 -.983662845005779D+02 -.994004726489476D+02 -.120780767440520D+04
 0.201956471183351D+04 0.000000000000000D+00 0.000000000000000D+00 0.201956471183351D+04
 0.306686053848624D+04 0.000000000000000D+00 0.000000000000000D+00 -.306686053848624D+04
 0.348812134751713D+03 0.165150280603154D+03 0.270008933564353D+03 -.765863301261280D+02
 0.161725368485779D+04 0.171491343160425D+03 -.967694291360204D+03 0.128439400453132D+04
 0.174955383236389D+04 -.401394120506350D+03 0.134275568285444D+04 -.104729582665273D+04
 0.137080559834635D+04 0.647524967427711D+02 -.645070325058586D+03 -.120780767440520D+04
0.661754687137D-01 0.000000000000D+00 0.000000000000D+00 0.727885837061D-04 0.000000000000D+00  6 2 -2 25 2 -2 21 0 0.25486177D+00 0.21291507D+00 0.23141854D+06 0.23141854D+06 0.23141854D+06 0.10929915D+01  1  2  2  2  6  2       -2 0.935752109693D-02 0.100000000000D+01
0.121807691018D-01 0.000000000000D+00 -.254131224262D-03 0.727885837061D-04 0.000000000000D+00  6 2 -2 25 2 -2 21 2 0.25486177D+00 0.21291507D+00 0.23141854D+06 0.23141854D+06 0.23141854D+06 0.10929915D+01  1  2  3  2  6  2       -2 0.205765250655D-02 0.100000000000D+01
-.415381747800D-01 0.000000000000D+00 0.000000000000D+00 0.727885837061D-04 0.000000000000D+00  6 2 -2 25 2 -2 21 2 0.25486177D+00 0.21291507D+00 0.23141854D+06 0.23141854D+06 0.23141854D+06 0.10929915D+01  1  2 15  2  6  2       -2 -.701689103035D-02 0.100000000000D+01
0.344877052180D-01 0.000000000000D+00 -.335775574002D-01 0.727885837061D-04 0.000000000000D+00  6 2 -2 25 2 -2 21 2 0.25486177D+00 0.47278877D+00 0.23141854D+06 0.23141854D+06 0.23141854D+06 0.10929915D+01  1  2  5  2  6  2       -2 0.831839297712D-04 0.100000000000D+01
0.510308540764D-02 0.000000000000D+00 -.290545180316D-02 0.727885837061D-04 0.000000000000D+00  6 2 21 25 2 2 -2 2 0.25486177D+00 0.47278877D+00 0.23141854D+06 0.23141854D+06 0.23141854D+06 0.10929915D+01  3  4  5  6  5  2       -2 0.111667133927D-03 0.100000000000D+01
  </mgrwgt>
  </event>
  <event>
  5     66 0.15870568E-05 0.11935925E+03 0.75467711E-02 0.94833296E-01
        2 -1    0    0  502    0 0.00000000E+00 0.00000000E+00 0.23702599E+04 0.23702599E+04 0.32000000E+00 0.0000E+00 0.9000E+01
       -2 -1    0    0    0  501 0.00000000E+00 0.00000000E+00 -.61674309E+03 0.61674317E+03 0.32000000E+00 0.0000E+00 0.9000E+01
       25  1    1    2    0    0 -.46940556E+03 -.25617461E+02 0.87956559E+03 0.10051161E+04 0.12500000E+03 0.0000E+00 0.9000E+01
        2  1    1    2  502    0 0.10319682E+03 0.60017312E+02 0.13639671E+04 0.13691815E+04 0.32000000E+00 0.0000E+00 0.9000E+01
       -2  1    1    2    0  501 0.36620873E+03 -.34399851E+02 -.49001592E+03 0.61270539E+03 0.32000000E+00 0.0000E+00 0.9000E+01
#aMCatNLO 1  0  0  4  1 0.27190089D+02 0.00000000D+00  -5  6  0 0.00000000D+00 0.00000000D+00 0.00000000D+00 0.00000000D+00 0.00000000D+00
  <mgrwgt>
 0.9314745602D-03    8    2    0
 0.120906639780720D+04 0.000000000000000D+00 0.000000000000000D+00 0.120906639780720D+04
 0.120906639780720D+04 -.000000000000000D+00 -.000000000000000D+00 -.120906639780720D+04
 0.603851581413255D+03 -.469434621128452D+03 -.256036992682274D+02 0.357753154346762D+03
 0.702074852236873D+03 0.103178603167503D+03 0.600067152122470D+02 0.691854369156737D+03
 0.111220636196427D+04 0.366256017960948D+03 -.344030159440196D+02 -.104960752350350D+04
 0.000000000000000D+00 0.000000000000000D+00 0.000000000000000D+00 0.000000000000000D+00
 0.120906639780720D+04 0.000000000000000D+00 0.000000000000000D+00 0.120906639780720D+04
 0.120906639780720D+04 -.000000000000000D+00 -.000000000000000D+00 -.120906639780720D+04
 0.604102760318733D+03 -.469355458466191D+03 -.255576597679444D+02 0.358283972094609D+03
 0.403757287755273D+03 0.350148451969306D+02 0.465860038142289D+02 0.399529288388160D+03
 0.111132971732626D+04 0.366401736246474D+03 -.343182689578006D+02 -.104863042331594D+04
 0.298943030214135D+03 0.679388770227867D+02 0.132899249115162D+02 0.290817162833176D+03
0.518670493013D-04 0.000000000000D+00 0.000000000000D+00 0.183660318475D-04 0.000000000000D+00  6 2 -2 25 2 -2 21 0 0.36465538D+00 0.94883560D-01 0.23701987D+06 0.23701987D+06 0.23701987D+06 0.10922054D+01  1  2  2  3  6  4        2 0.270757293848D-04 0.100000000000D+01
0.791238375229D-05 0.000000000000D+00 -.199183126225D-06 0.183660318475D-04 0.000000000000D+00  6 2 -2 25 2 -2 21 2 0.36465538D+00 0.94883560D-01 0.23701987D+06 0.23701987D+06 0.23701987D+06 0.10922054D+01  1  2  3  3  6  4        2 0.492724966675D-05 0.100000000000D+01
-.330453017750D-04 0.000000000000D+00 0.000000000000D+00 0.183660318475D-04 0.000000000000D+00  6 2 -2 25 2 -2 21 2 0.36465538D+00 0.94883560D-01 0.23701987D+06 0.23701987D+06 0.23701987D+06 0.10922054D+01  1  2 15  3  6  4        2 -.205781793775D-04 0.100000000000D+01
0.122423053172D-09 0.000000000000D+00 0.000000000000D+00 0.183660318475D-04 0.000000000000D+00  6 2 -2 25 2 -2 21 2 0.36465538D+00 0.94883560D-01 0.24103049D+06 0.24103049D+06 0.24103049D+06 0.10916549D+01  1  2 12  3  6  4        2 0.760635119942D-10 0.100000000000D+01
0.145518849913D-02 0.000000000000D+00 0.000000000000D+00 0.183660318475D-04 0.000000000000D+00  6 2 -2 25 2 -2 21 2 0.36465538D+00 0.94883560D-01 0.24103049D+06 0.24103049D+06 0.24103049D+06 0.10916549D+01  1  2 12  3  6  4        2 0.904133208493D-03 0.100000000000D+01
-.840363699026D-03 0.000000000000D+00 0.000000000000D+00 0.183660318475D-04 0.000000000000D+00  6 2 -2 25 2 -2 21 2 0.36465538D+00 0.94883560D-01 0.23701987D+06 0.23701987D+06 0.23701987D+06 0.10922054D+01  1  2  4  3  6  4        2 -.523316599094D-03 0.100000000000D+01
-.171778951068D-02 0.000000000000D+00 0.000000000000D+00 0.183660318475D-04 0.000000000000D+00  6 2 -2 25 2 -2 21 2 0.36465538D+00 0.94883560D-01 0.23701987D+06 0.23701987D+06 0.23701987D+06 0.10922054D+01  1  2  5  3  6  4        2 -.106971275143D-02 0.100000000000D+01
0.258371255304D-02 0.000000000000D+00 -.000000000000D+00 0.183660318475D-04 0.000000000000D+00  6 2 -2 25 2 -2 21 2 0.36465538D+00 0.94883560D-01 0.23701987D+06 0.23701987D+06 0.23701987D+06 0.10922054D+01  1  2  6  3  6  4        2 0.160894582651D-02 0.100000000000D+01
  </mgrwgt>
  </event>
  <event>
  5     66 0.15870568E-05 0.82636762E+02 0.75467711E-02 0.92842581E-01
        2 -1    0    0  502    0 0.00000000E+00 0.00000000E+00 0.14818270E+04 0.14818270E+04 0.32000000E+00 0.0000E+00 0.9000E+01
       -2 -1    0    0    0  501 0.00000000E+00 0.00000000E+00 -.56799986E+03 0.56799995E+03 0.32000000E+00 0.0000E+00 0.9000E+01
       25  1    1    2    0    0 -.48863628E+03 0.75947687E+02 -.70982676E+02 0.51497282E+03 0.12500000E+03 0.0000E+00 0.9000E+01
        2  1    1    2  502    0 -.24226069E+01 0.82612159E+02 0.10146103E+04 0.10179710E+04 0.32000000E+00 0.0000E+00 0.9000E+01
       -2  1    1    2    0  501 0.49105889E+03 -.15855985E+03 -.29800531E+02 0.51688319E+03 0.32000000E+00 0.0000E+00 0.9000E+01
#aMCatNLO 1  0  0  2  5 0.50418427D+02 0.00000000D+00  -5  6  0 0.00000000D+00 0.00000000D+00 0.00000000D+00 0.00000000D+00 0.00000000D+00
  <mgrwgt>
 0.1029350963D-02   11    4    0
 0.917429911648007D+03 0.000000000000000D+00 0.000000000000000D+00 0.917429911648007D+03
 0.917429911648007D+03 0.000000000000000D+00 0.000000000000000D+00 -.917429911648007D+03
 0.610700163662057D+03 -.488710253999271D+03 0.759704571240542D+02 -.335738688829860D+03
 0.631837177359022D+03 -.242228710995081D+01 0.826012525242400D+02 0.626409917146592D+03
 0.592322482274936D+03 0.491132541109221D+03 -.158571709648294D+03 -.290671228316732D+03
 0.000000000000000D+00 -.000000000000000D+00 -.000000000000000D+00 -.000000000000000D+00
 0.926482014970379D+03 0.000000000000000D+00 0.000000000000000D+00 0.926482014970379D+03
 0.990773866900640D+03 0.000000000000000D+00 0.000000000000000D+00 -.990773866900640D+03
 0.608963417195981D+03 -.483767421945577D+03 0.919785723412935D+02 -.335738688829860D+03
 0.634224724415141D+03 0.270857967025352D+01 0.992183468720927D+02 0.626409917146592D+03
 0.592364251797518D+03 0.495933625321836D+03 -.143022666426043D+03 -.290671228316732D+03
 0.817034884623805D+02 -.148747830465128D+02 -.481742527873428D+02 -.642918519302619D+02
 0.917429911648007D+03 0.000000000000000D+00 0.000000000000000D+00 0.917429911648007D+03
 0.917429911648007D+03 0.000000000000000D+00 0.000000000000000D+00 -.917429911648007D+03
 0.610700163662057D+03 -.488710253999271D+03 0.759704571240542D+02 -.335738688829860D+03
 0.631837177359022D+03 -.242228710995081D+01 0.826012525242400D+02 0.626409917146592D+03
 0.000000000000000D+00 -.000000000000000D+00 -.000000000000000D+00 -.000000000000000D+00
 0.592322482274936D+03 0.491132541109221D+03 -.158571709648294D+03 -.290671228316732D+03
 0.926482014970379D+03 0.000000000000000D+00 0.000000000000000D+00 0.926482014970379D+03
 0.990773866900640D+03 0.000000000000000D+00 0.000000000000000D+00 -.990773866900640D+03
 0.608963417195981D+03 -.483767421945577D+03 0.919785723412935D+02 -.335738688829860D+03
 0.634224724415141D+03 0.270857967025352D+01 0.992183468720927D+02 0.626409917146592D+03
 0.817034884623805D+02 -.148747830465128D+02 -.481742527873428D+02 -.642918519302619D+02
 0.592364251797518D+03 0.495933625321836D+03 -.143022666426043D+03 -.290671228316732D+03
0.978838935000D-04 0.000000000000D+00 0.000000000000D+00 0.104367361300D-05 0.000000000000D+00  6 2 -2 25 2 -2 21 0 0.22797339D+00 0.87384603D-01 0.30739561D+06 0.30739561D+06 0.30739561D+06 0.10837702D+01  1  2  2  2  6  2       -2 0.187677880528D-03 0.100000000000D+01
0.269986916809D-04 0.000000000000D+00 -.375899924461D-06 0.104367361300D-05 0.000000000000D+00  6 2 -2 25 2 -2 21 2 0.22797339D+00 0.87384603D-01 0.30739561D+06 0.30739561D+06 0.30739561D+06 0.10837702D+01  1  2  3  2  6  2       -2 0.608021616120D-04 0.100000000000D+01
-.703097070511D-04 0.000000000000D+00 0.000000000000D+00 0.104367361300D-05 0.000000000000D+00  6 2 -2 25 2 -2 21 2 0.22797339D+00 0.87384603D-01 0.30739561D+06 0.30739561D+06 0.30739561D+06 0.10837702D+01  1  2 15  2  6  2       -2 -.158340345582D-03 0.100000000000D+01
0.722142995289D-08 0.000000000000D+00 0.000000000000D+00 0.104367361300D-05 0.000000000000D+00  6 2 -2 25 2 -2 21 2 0.22797339D+00 0.94780613D-01 0.34449262D+06 0.34449262D+06 0.34449262D+06 0.10801362D+01  1  2 12  2  6  2       -2 0.132706445824D-07 0.100000000000D+01
0.101288613876D-02 0.000000000000D+00 0.000000000000D+00 0.104367361300D-05 0.000000000000D+00  6 2 -2 25 2 -2 21 2 0.22797339D+00 0.96984149D-01 0.34449262D+06 0.34449262D+06 0.34449262D+06 0.10801362D+01  1  2 12  2  6  2       -2 0.176210714907D-02 0.100000000000D+01
-.678664969561D-03 0.000000000000D+00 0.000000000000D+00 0.104367361300D-05 0.000000000000D+00  6 2 -2 25 2 -2 21 2 0.22797339D+00 0.87384603D-01 0.30739561D+06 0.30739561D+06 0.30739561D+06 0.10837702D+01  1  2  4  2  6  2       -2 -.152838136186D-02 0.100000000000D+01
-.230827850449D-02 0.000000000000D+00 -.299715268063D-03 0.104367361300D-05 0.000000000000D+00  6 2 -2 25 2 -2 21 2 0.22797339D+00 0.94916688D-01 0.30739561D+06 0.30739561D+06 0.30739561D+06 0.10837702D+01  1  2  5  2  6  2       -2 -.428272522297D-02 0.100000000000D+01
0.232612532790D-02 0.000000000000D+00 0.298693743089D-03 0.104367361300D-05 0.000000000000D+00  6 2 -2 25 2 -2 21 2 0.22797339D+00 0.87384603D-01 0.30739561D+06 0.30739561D+06 0.30739561D+06 0.10837702D+01  1  2  6  2  6  2       -2 0.523852969575D-02 0.100000000000D+01
0.101847491398D-09 0.000000000000D+00 0.000000000000D+00 0.104367361300D-05 0.000000000000D+00  6 2 21 25 2 2 -2 2 0.22797339D+00 0.94780613D-01 0.34449262D+06 0.34449262D+06 0.34449262D+06 0.10801362D+01  3  4 12  6  5  2       -2 0.173278351926D-08 0.100000000000D+01
0.177568208686D-04 0.000000000000D+00 0.000000000000D+00 0.104367361300D-05 0.000000000000D+00  6 2 21 25 2 2 -2 2 0.22797339D+00 0.96984149D-01 0.34449262D+06 0.34449262D+06 0.34449262D+06 0.10801362D+01  3  4 12  6  5  2       -2 0.284830709640D-03 0.100000000000D+01
-.310545082029D-04 0.000000000000D+00 -.412199076951D-05 0.104367361300D-05 0.000000000000D+00  6 2 21 25 2 2 -2 2 0.22797339D+00 0.94916688D-01 0.30739561D+06 0.30739561D+06 0.30739561D+06 0.10837702D+01  3  4  5  6  5  2       -2 -.535164706406D-03 0.100000000000D+01
  </mgrwgt>
  </event>
  <event>
  6     66 0.15870568E-05 0.22551227E+03 0.75467711E-02 0.91323471E-01
        2 -1    0    0  502    0 0.00000000E+00 0.00000000E+00 0.62662799E+03 0.62662807E+03 0.32000000E+00 0.0000E+00 0.9000E+01
       -2 -1    0    0    0  501 -.00000000E+00 -.00000000E+00 -.23810691E+04 0.23810691E+04 0.32000000E+00 0.0000E+00 0.9000E+01
       25  1    1    2    0    0 -.53598228E+03 0.12127167E+03 0.40036121E+01 0.56358216E+03 0.12500000E+03 0.0000E+00 0.9000E+01
        2  1    1    2  503    0 0.36625222E+03 -.23300788E+03 -.12192117E+03 0.45088605E+03 0.32000000E+00 0.0000E+00 0.9000E+01
       -2  1    1    2    0  501 -.83680048E+02 0.22391105E+02 -.17119523E+04 0.17141425E+04 0.32000000E+00 0.0000E+00 0.9000E+01
       21  1    1    2  502  503 0.25341011E+03 0.89345101E+02 0.75428706E+02 0.27908652E+03 0.75000000E+00 0.0000E+00 0.9000E+01
#aMCatNLO 2  0  0  4  5 0.17679569D+03 0.00000000D+00  -5  6  0 0.00000000D+00 0.00000000D+00 0.00000000D+00 0.00000000D+00 0.00000000D+00
  <mgrwgt>
 0.4041876347D-03    1    2    0
 0.122149281227714D+04 0.000000000000000D+00 0.000000000000000D+00 0.122149281227714D+04
 0.122149281227714D+04 -.000000000000000D+00 -.000000000000000D+00 -.122149281227714D+04
 0.703466248861864D+03 -.553108387672594D+03 0.125240915098405D+03 0.397020891086752D+03
 0.839195900556301D+03 0.658988484634242D+03 -.152780168359642D+03 0.496630805313128D+03
 0.900323475136119D+03 -.105880096961648D+03 0.275392532612366D+02 -.893651696399880D+03
 0.000000000000000D+00 0.000000000000000D+00 0.000000000000000D+00 0.000000000000000D+00
 0.122149281227714D+04 0.000000000000000D+00 0.000000000000000D+00 0.122149281227714D+04
 0.122149281227714D+04 -.000000000000000D+00 -.000000000000000D+00 -.122149281227714D+04
 0.696779041444262D+03 -.535691823696492D+03 0.121203051556689D+03 0.410146465197565D+03
 0.467033396987639D+03 0.365819272977149D+03 -.232869776670905D+03 0.173401616294447D+03
 0.881223935668561D+03 -.837208119624068D+02 0.224018352761675D+02 -.876951884778066D+03
 0.397949250453821D+03 0.253593362681750D+03 0.892648898380486D+02 0.293403803286054D+03
0.611894903558D-02 0.000000000000D+00 0.000000000000D+00 0.979957268301D-06 0.149876880707D-09  6 2 -2 25 2 -2 21 2 0.96404314D-01 0.36631833D+00 0.45727221D+06 0.45727221D+06 0.45727221D+06 0.10712631D+01  1  2  1  3  6  4        2 0.404187634694D-03 0.100000000000D+01
  </mgrwgt>
  </event>
  <event>
  5     66 -.15870568E-05 0.28871590E+02 0.75467711E-02 0.92615173E-01
        2 -1    0    0  502    0 0.00000000E+00 0.00000000E+00 0.12777534E+04 0.12777535E+04 0.32000000E+00 0.0000E+00 0.9000E+01
       -2 -1    0    0    0  501 0.00000000E+00 0.00000000E+00 -.80476523E+03 0.80476529E+03 0.32000000E+00 0.0000E+00 0.9000E+01
       25  1    1    2    0    0 -.31991042E+03 -.48323127E+03 0.24948800E+03 0.64321411E+03 0.12500000E+03 0.0000E+00 0.9000E+01
        2  1    1    2  502    0 0.27220766E+02 -.96438004E+01 0.69590225E+03 0.69650127E+03 0.32000000E+00 0.0000E+00 0.9000E+01
       -2  1    1    2    0  501 0.29268965E+03 0.49287507E+03 -.47240205E+03 0.74280338E+03 0.32000000E+00 0.0000E+00 0.9000E+01
#aMCatNLO 1  0  0  2  5 0.27234704D+01 0.00000000D+00  -5  6  0 0.00000000D+00 0.00000000D+00 0.00000000D+00 0.00000000D+00 0.00000000D+00
  <mgrwgt>
 -.6011620496D-03   11    4    0
 0.101404715757009D+04 0.000000000000000D+00 0.000000000000000D+00 0.101404715757009D+04
 0.101404715757009D+04 0.000000000000000D+00 0.000000000000000D+00 -.101404715757009D+04
 0.602388968397255D+03 -.319949556499195D+03 -.483305617776983D+03 0.106279962212478D+03
 0.552760986892706D+03 0.272141676460621D+02 -.964146282141404D+01 0.552006467267000D+03
 0.872944359850224D+03 0.292735388853133D+03 0.492947080598397D+03 -.658286429479478D+03
 0.000000000000000D+00 -.000000000000000D+00 0.000000000000000D+00 -.000000000000000D+00
 0.101404973375910D+04 0.000000000000000D+00 0.000000000000000D+00 0.101404973375910D+04
 0.212985199291706D+04 0.000000000000000D+00 0.000000000000000D+00 -.212985199291706D+04
 0.602142359233081D+03 -.319168315564139D+03 -.483514815445035D+03 0.106279962212478D+03
 0.552800135682333D+03 0.279312179919933D+02 -.983347178243114D+01 0.552006467267000D+03
 0.873153648859630D+03 0.293867881806810D+03 0.492643826026904D+03 -.658286429479478D+03
 0.111580558290111D+04 -.263078423466390D+01 0.704461200561897D+00 -.111580225915796D+04
 0.101404715757009D+04 0.000000000000000D+00 0.000000000000000D+00 0.101404715757009D+04
 0.101404715757009D+04 0.000000000000000D+00 0.000000000000000D+00 -.101404715757009D+04
 0.602388968397255D+03 -.319949556499195D+03 -.483305617776983D+03 0.106279962212478D+03
 0.552760986892706D+03 0.272141676460621D+02 -.964146282141404D+01 0.552006467267000D+03
 0.000000000000000D+00 -.000000000000000D+00 0.000000000000000D+00 -.000000000000000D+00
 0.872944359850224D+03 0.292735388853133D+03 0.492947080598397D+03 -.658286429479478D+03
 0.101404973375910D+04 0.000000000000000D+00 0.000000000000000D+00 0.101404973375910D+04
 0.212985199291706D+04 0.000000000000000D+00 0.000000000000000D+00 -.212985199291706D+04
 0.602142359233081D+03 -.319168315564139D+03 -.483514815445035D+03 0.106279962212478D+03
 0.552800135682333D+03 0.279312179919933D+02 -.983347178243114D+01 0.552006467267000D+03
 0.111580558290111D+04 -.263078423466390D+01 0.704461200561897D+00 -.111580225915796D+04
 0.873153648859630D+03 0.293867881806810D+03 0.492643826026904D+03 -.658286429479478D+03
0.179465534375D-05 0.000000000000D+00 0.000000000000D+00 0.106251165806D-04 0.000000000000D+00  6 2 -2 25 2 -2 21 0 0.19657746D+00 0.12381004D+00 0.35708187D+06 0.35708187D+06 0.35708187D+06 0.10789992D+01  1  2  2  2  6  2       -2 0.189188614270D-05 0.100000000000D+01
0.112204215624D-05 0.000000000000D+00 -.689194906359D-08 0.106251165806D-04 0.000000000000D+00  6 2 -2 25 2 -2 21 2 0.19657746D+00 0.12381004D+00 0.35708187D+06 0.35708187D+06 0.35708187D+06 0.10789992D+01  1  2  3  2  6  2       -2 0.137709957066D-05 0.100000000000D+01
-.991436165906D-06 0.000000000000D+00 0.000000000000D+00 0.106251165806D-04 0.000000000000D+00  6 2 -2 25 2 -2 21 2 0.19657746D+00 0.12381004D+00 0.35708187D+06 0.35708187D+06 0.35708187D+06 0.10789992D+01  1  2 15  2  6  2       -2 -.121680483287D-05 0.100000000000D+01
0.425240537340D-09 0.000000000000D+00 0.000000000000D+00 0.106251165806D-04 0.000000000000D+00  6 2 -2 25 2 -2 21 2 0.19657746D+00 0.26004416D+00 0.35919535D+06 0.35919535D+06 0.35919535D+06 0.10788126D+01  1  2 12  2  6  2       -2 0.539786939712D-10 0.100000000000D+01
0.141731295472D-02 0.000000000000D+00 0.000000000000D+00 0.106251165806D-04 0.000000000000D+00  6 2 -2 25 2 -2 21 2 0.19657746D+00 0.26004596D+00 0.35919535D+06 0.35919535D+06 0.35919535D+06 0.10788126D+01  1  2 12  2  6  2       -2 0.179904439966D-03 0.100000000000D+01
-.163983909333D+00 0.000000000000D+00 -.102596722333D-05 0.106251165806D-04 0.000000000000D+00  6 2 -2 25 2 -2 21 2 0.19657746D+00 0.26004434D+00 0.35708187D+06 0.35708187D+06 0.35708187D+06 0.10789992D+01  1  2  5  2  6  2       -2 -.208326169061D-01 0.100000000000D+01
0.159625389520D+00 0.000000000000D+00 0.000000000000D+00 0.106251165806D-04 0.112470356106D-04  6 2 -2 25 2 -2 21 2 0.19657796D+00 0.26004418D+00 0.35919535D+06 0.35919535D+06 0.35919535D+06 0.10788126D+01  1  2 11  2  6  2       -2 0.202622510857D-01 0.100000000000D+01
0.341298507658D-10 0.000000000000D+00 0.000000000000D+00 0.106251165806D-04 0.000000000000D+00  6 2 21 25 2 2 -2 2 0.19657746D+00 0.26004416D+00 0.35919535D+06 0.35919535D+06 0.35919535D+06 0.10788126D+01  3  4 12  6  5  2       -2 0.317876552847D-10 0.100000000000D+01
0.113753688526D-03 0.000000000000D+00 0.000000000000D+00 0.106251165806D-04 0.000000000000D+00  6 2 21 25 2 2 -2 2 0.19657746D+00 0.26004596D+00 0.35919535D+06 0.35919535D+06 0.35919535D+06 0.10788126D+01  3  4 12  6  5  2       -2 0.105944245323D-03 0.100000000000D+01
-.131612676095D-01 0.000000000000D+00 -.823440204291D-07 0.106251165806D-04 0.000000000000D+00  6 2 21 25 2 2 -2 2 0.19657746D+00 0.26004434D+00 0.35708187D+06 0.35708187D+06 0.35708187D+06 0.10789992D+01  3  4  5  6  5  2       -2 -.122707595867D-01 0.100000000000D+01
0.128327799026D-01 0.000000000000D+00 0.000000000000D+00 0.106251165806D-04 0.452091978089D-06  6 2 21 25 2 2 -2 2 0.19657796D+00 0.26004418D+00 0.35919535D+06 0.35919535D+06 0.35919535D+06 0.10788126D+01  3  4 11  6  5  2       -2 0.119520624055D-01 0.100000000000D+01
  </mgrwgt>
  </event>
  <event>
  5     66 0.15870568E-05 0.54273262E+02 0.75467711E-02 0.95542523E-01
        2 -1    0    0  502    0 0.00000000E+00 0.00000000E+00 0.36503552E+04 0.36503552E+04 0.32000000E+00 0.0000E+00 0.9000E+01
       -2 -1    0    0    0  501 0.00000000E+00 0.00000000E+00 -.44298915E+03 0.44298927E+03 0.32000000E+00 0.0000E+00 0.9000E+01
       25  1    1    2    0    0 0.77120551E+01 0.45169053E+03 0.14807956E+03 0.49156522E+03 0.12500000E+03 0.0000E+00 0.9000E+01
        2  1    1    2  502    0 -.16226855E+02 -.51792045E+02 0.31827161E+04 0.31831789E+04 0.32000000E+00 0.0000E+00 0.9000E+01
       -2  1    1    2    0  501 0.85148002E+01 -.39989849E+03 -.12342964E+03 0.41860038E+03 0.32000000E+00 0.0000E+00 0.9000E+01
#aMCatNLO 1  0  0  2  5 0.91748457D+02 0.00000000D+00  -5  6  0 0.00000000D+00 0.00000000D+00 0.00000000D+00 0.00000000D+00 0.00000000D+00
  <mgrwgt>
 0.2306499094D-02    4    2    0
 0.127163989458003D+04 0.000000000000000D+00 0.000000000000000D+00 0.127163989458003D+04
 0.127163989458003D+04 0.000000000000000D+00 0.000000000000000D+00 -.127163989458003D+04
 0.604424861196971D+03 0.771149015844929D+01 0.451724839088682D+03 -.381562072935477D+03
 0.110945125451987D+04 -.162264701670642D+02 -.517908158783457D+02 0.110812296213565D+04
 0.829403673443213D+03 0.851498000861490D+01 -.399934023210337D+03 -.726560889200170D+03
 0.000000000000000D+00 -.000000000000000D+00 0.000000000000000D+00 0.000000000000000D+00
 0.139836534690788D+04 0.000000000000000D+00 0.000000000000000D+00 0.139836534690788D+04
 0.131983279167693D+04 0.000000000000000D+00 0.000000000000000D+00 -.131983279167693D+04
 0.578954728180042D+03 0.126155348297555D+02 0.416911033747210D+03 -.381562072935477D+03
 0.111432684685777D+04 -.701090886608750D+01 -.117212070933747D+03 0.110812296213565D+04
 0.854491828179947D+03 0.154932132280326D+02 -.449472489764209D+03 -.726560889200170D+03
 0.170424735367047D+03 -.210978391917006D+02 0.149773526950746D+03 0.785325552309580D+02
0.182715578785D-01 0.000000000000D+00 0.000000000000D+00 0.651525734868D-04 0.000000000000D+00  6 2 -2 25 2 -2 21 0 0.56159312D+00 0.68152188D-01 0.21301088D+06 0.21301088D+06 0.21301088D+06 0.10957293D+01  1  2  2  2  6  2       -2 0.309157639705D-02 0.100000000000D+01
0.786686322266D-02 0.000000000000D+00 -.701675932649D-04 0.651525734868D-04 0.000000000000D+00  6 2 -2 25 2 -2 21 2 0.56159312D+00 0.68152188D-01 0.21301088D+06 0.21301088D+06 0.21301088D+06 0.10957293D+01  1  2  3  2  6  2       -2 0.159813173234D-02 0.100000000000D+01
-.116298125995D-01 0.000000000000D+00 0.000000000000D+00 0.651525734868D-04 0.000000000000D+00  6 2 -2 25 2 -2 21 2 0.56159312D+00 0.68152188D-01 0.21301088D+06 0.21301088D+06 0.21301088D+06 0.10957293D+01  1  2 15  2  6  2       -2 -.236256459918D-02 0.100000000000D+01
-.101623009665D-03 0.000000000000D+00 0.000000000000D+00 0.651525734868D-04 0.000000000000D+00  6 2 -2 25 2 -2 21 2 0.56159312D+00 0.68152188D-01 0.21301088D+06 0.21301088D+06 0.21301088D+06 0.10957293D+01  1  2  4  2  6  2       -2 -.206444362746D-04 0.100000000000D+01
  </mgrwgt>
  </event>
  <event>
  5     66 0.15870568E-05 0.97652786E+02 0.75467711E-02 0.89910884E-01
        2 -1    0    0  502    0 0.00000000E+00 0.00000000E+00 0.28375141E+04 0.28375141E+04 0.32000000E+00 0.0000E+00 0.9000E+01
       -2 -1    0    0    0  501 0.00000000E+00 0.00000000E+00 -.10396973E+04 0.10396973E+04 0.32000000E+00 0.0000E+00 0.9000E+01
       25  1    1    2    0    0 0.46808771E+03 0.52920042E+03 0.57203641E+03 0.91761094E+03 0.12500000E+03 0.0000E+00 0.9000E+01
        2  1    1    2  502    0 -.87690460E+02 0.42987290E+02 0.19551352E+04 0.19575728E+04 0.32000000E+00 0.0000E+00 0.9000E+01
       -2  1    1    2    0  501 -.38039725E+03 -.57218771E+03 -.72935483E+03 0.10020277E+04 0.32000000E+00 0.0000E+00 0.9000E+01
#aMCatNLO 1  0  0  1  2 0.33264893D+02 0.00000000D+00  -5  6  0 0.00000000D+00 0.00000000D+00 0.00000000D+00 0.00000000D+00 0.00000000D+00
  <mgrwgt>
 0.4735826321D-03    9    2    0
 0.171760174666679D+04 0.000000000000000D+00 0.000000000000000D+00 0.171760174666679D+04
 0.171760174666679D+04 0.000000000000000D+00 0.000000000000000D+00 -.171760174666679D+04
 0.736377155182045D+03 0.468115939942519D+03 0.529251872230630D+03 0.165487876251120D+03
 0.118614144518591D+04 -.876837606316886D+02 0.429840055084394D+02 0.118211482580148D+04
 0.151268489296563D+04 -.380432179310830D+03 -.572235877739069D+03 -.134760270205260D+04
 0.000000000000000D+00 0.000000000000000D+00 0.000000000000000D+00 0.000000000000000D+00
 0.187249906685273D+04 0.000000000000000D+00 0.000000000000000D+00 0.187249906685273D+04
 0.171946915030729D+04 0.000000000000000D+00 0.000000000000000D+00 -.171946915030729D+04
 0.730279026282189D+03 0.461540612885710D+03 0.526570490721460D+03 0.165487876251120D+03
 0.118682611155716D+04 -.983222715369542D+02 0.386456804061250D+02 0.118211482580148D+04
 0.151825941249816D+04 -.394020537885435D+03 -.577777134182608D+03 -.134760270205260D+04
 0.156603666822512D+03 0.308021965366795D+02 0.125609630550226D+02 0.153029916545434D+03
0.299383847357D-03 0.000000000000D+00 0.000000000000D+00 0.143476218538D-04 0.000000000000D+00  6 2 -2 25 2 -2 21 0 0.43654063D+00 0.15995343D+00 0.56426326D+06 0.56426326D+06 0.56426326D+06 0.10648188D+01  1  2  2  1  6  1        2 0.198441305281D-04 0.100000000000D+01
0.102536296319D-03 0.000000000000D+00 -.114971280343D-05 0.143476218538D-04 0.000000000000D+00  6 2 -2 25 2 -2 21 2 0.43654063D+00 0.15995343D+00 0.56426326D+06 0.56426326D+06 0.56426326D+06 0.10648188D+01  1  2  3  1  6  1        2 0.770606686468D-05 0.100000000000D+01
-.176083141865D-03 0.000000000000D+00 0.000000000000D+00 0.143476218538D-04 0.000000000000D+00  6 2 -2 25 2 -2 21 2 0.43654063D+00 0.15995343D+00 0.56426326D+06 0.56426326D+06 0.56426326D+06 0.10648188D+01  1  2 15  1  6  1        2 -.132334452644D-04 0.100000000000D+01
0.410238908139D-09 0.000000000000D+00 0.000000000000D+00 0.143476218538D-04 0.000000000000D+00  6 2 -2 25 2 -2 21 2 0.47613399D+00 0.15995343D+00 0.60026260D+06 0.60026260D+06 0.60026260D+06 0.10629457D+01  1  2 12  1  6  1        2 0.209686236474D-10 0.100000000000D+01
-.979637854653D-03 0.000000000000D+00 0.000000000000D+00 0.143476218538D-04 0.000000000000D+00  6 2 -2 25 2 -2 21 2 0.43654063D+00 0.15995343D+00 0.56426326D+06 0.56426326D+06 0.56426326D+06 0.10648188D+01  1  2  4  1  6  1        2 -.736242197360D-04 0.100000000000D+01
-.228385447844D-01 0.000000000000D+00 -.550360585027D-03 0.143476218538D-04 0.000000000000D+00  6 2 -2 25 2 -2 21 2 0.47603939D+00 0.15995343D+00 0.56426326D+06 0.56426326D+06 0.56426326D+06 0.10648188D+01  1  2  5  1  6  1        2 -.117983191590D-02 0.100000000000D+01
0.228026784230D-01 0.000000000000D+00 0.548302376263D-03 0.143476218538D-04 0.000000000000D+00  6 2 -2 25 2 -2 21 2 0.43654063D+00 0.15995343D+00 0.56426326D+06 0.56426326D+06 0.56426326D+06 0.10648188D+01  1  2  6  1  6  1        2 0.171372451443D-02 0.100000000000D+01
0.611326385631D-11 0.000000000000D+00 0.000000000000D+00 0.143476218538D-04 0.000000000000D+00  6 21 -2 25 2 -2 -2 2 0.47613399D+00 0.15995343D+00 0.60026260D+06 0.60026260D+06 0.60026260D+06 0.10629457D+01  1  2 12  5  6  1        2 0.179590975274D-13 0.100000000000D+01
-.336322359491D-03 0.000000000000D+00 -.788650813204D-05 0.143476218538D-04 0.000000000000D+00  6 21 -2 25 2 -2 -2 2 0.47603939D+00 0.15995343D+00 0.56426326D+06 0.56426326D+06 0.56426326D+06 0.10648188D+01  1  2  5  5  6  1        2 -.100251977840D-05 0.100000000000D+01
  </mgrwgt>
  </event>
  <event>
  5     66 0.15870568E-05 0.12289266E+03 0.75467711E-02 0.94052917E-01
        2 -1    0    0  502    0 0.00000000E+00 0.00000000E+00 0.45977011E+04 0.45977011E+04 0.32000000E+00 0.0000E+00 0.9000E+01
       -2 -1    0    0    0  501 0.00000000E+00 0.00000000E+00 -.64294905E+03 0.64294913E+03 0.32000000E+00 0.0000E+00 0.9000E+01
       25  1    1    2    0    0 0.23217083E+03 -.43683254E+03 0.14122686E+04 0.15016170E+04 0.12500000E+03 0.0000E+00 0.9000E+01
        2  1    1    2  502    0 0.38184790E+02 0.11682079E+03 0.30660403E+04 0.30685026E+04 0.32000000E+00 0.0000E+00 0.9000E+01
       -2  1    1    2    0  501 -.27035562E+03 0.32001175E+03 -.52355675E+03 0.67053073E+03 0.32000000E+00 0.0000E+00 0.9000E+01
#aMCatNLO 1  0  0  2  2 0.16360844D+03 0.00000000D+00  -5  6  0 0.00000000D+00 0.00000000D+00 0.00000000D+00 0.00000000D+00 0.00000000D+00
  <mgrwgt>
 0.6235394667D-03    4    2    0
 0.171932772637939D+04 0.000000000000000D+00 0.000000000000000D+00 0.171932772637939D+04
 0.171932772637939D+04 0.000000000000000D+00 0.000000000000000D+00 -.171932772637939D+04
 0.664379364853239D+03 0.232197200261304D+03 -.436851306963700D+03 0.425464847240888D+03
 0.115021218589193D+04 0.381815432435873D+02 0.116810852949991D+03 0.114362820311626D+04
 0.162406390201361D+04 -.270378743504891D+03 0.320040454013708D+03 -.156909305035715D+04
 0.000000000000000D+00 0.000000000000000D+00 -.000000000000000D+00 0.000000000000000D+00
 0.214341172586555D+04 0.000000000000000D+00 0.000000000000000D+00 0.214341172586555D+04
 0.191421016337802D+04 0.000000000000000D+00 0.000000000000000D+00 -.191421016337802D+04
 0.623918242520654D+03 0.135243175232271D+03 -.417537927217927D+03 0.425464847240888D+03
 0.116158043624028D+04 -.135798132310595D+03 0.151467851883435D+03 0.114362820311626D+04
 0.169389320808062D+04 -.520079817896448D+03 0.369781263342743D+03 -.156909305035715D+04
 0.578230002402021D+03 0.520634774974773D+03 -.103711188008252D+03 0.229201562487531D+03
0.126296631817D+00 0.000000000000D+00 0.000000000000D+00 0.675698833862D-04 0.000000000000D+00  6 2 -2 25 2 -2 21 0 0.70733864D+00 0.98915246D-01 0.27674458D+06 0.27674458D+06 0.27674458D+06 0.10871540D+01  1  2  2  2  6  2       -2 0.134608310427D-02 0.100000000000D+01
0.234512760996D-01 0.000000000000D+00 -.485012320843D-03 0.675698833862D-04 0.000000000000D+00  6 2 -2 25 2 -2 21 2 0.70733864D+00 0.98915246D-01 0.27674458D+06 0.27674458D+06 0.27674458D+06 0.10871540D+01  1  2  3  2  6  2       -2 0.295412396977D-03 0.100000000000D+01
-.806498055871D-01 0.000000000000D+00 0.000000000000D+00 0.675698833862D-04 0.000000000000D+00  6 2 -2 25 2 -2 21 2 0.70733864D+00 0.98915246D-01 0.27674458D+06 0.27674458D+06 0.27674458D+06 0.10871540D+01  1  2 15  2  6  2       -2 -.101593415569D-02 0.100000000000D+01
-.160506599264D-03 0.000000000000D+00 0.000000000000D+00 0.675698833862D-04 0.000000000000D+00  6 2 -2 25 2 -2 21 2 0.70733864D+00 0.98915246D-01 0.27674458D+06 0.27674458D+06 0.27674458D+06 0.10871540D+01  1  2  4  2  6  2       -2 -.202187885290D-05 0.100000000000D+01
  </mgrwgt>
  </event>
  <event>
  5     66 -.15870568E-05 0.31245864E+02 0.75467711E-02 0.91686489E-01
        2 -1    0    0  502    0 0.00000000E+00 0.00000000E+00 0.14310031E+04 0.14310031E+04 0.32000000E+00 0.0000E+00 0.9000E+01
       -2 -1    0    0    0  501 0.00000000E+00 0.00000000E+00 -.55223888E+03 0.55223897E+03 0.32000000E+00 0.0000E+00 0.9000E+01
       25  1    1    2    0    0 -.58615537E+03 -.20556409E+03 0.67594570E+03 0.92647844E+03 0.12500000E+03 0.0000E+00 0.9000E+01
        2  1    1    2  502    0 -.28441452E+02 0.13008629E+02 0.38592119E+03 0.38718653E+03 0.32000000E+00 0.0000E+00 0.9000E+01
       -2  1    1    2    0  501 0.61459683E+03 0.19255546E+03 -.18310266E+03 0.66957714E+03 0.32000000E+00 0.0000E+00 0.9000E+01
#aMCatNLO 1  0  0  5  4 0.44254517D+02 0.00000000D+00  -5  6  0 0.00000000D+00 0.00000000D+00 0.00000000D+00 0.00000000D+00 0.00000000D+00
  <mgrwgt>
 -.1553426226D-02    6    2    0
 0.888963261359723D+03 0.000000000000000D+00 0.000000000000000D+00 0.888963261359723D+03
 0.888963261359723D+03 -.000000000000000D+00 -.000000000000000D+00 -.888963261359723D+03
 0.699556784038480D+03 -.586283725090746D+03 -.205589405084964D+03 0.296241597863617D+03
 0.240925484180741D+03 -.284147381039028D+02 0.129964108435470D+02 0.238890738396023D+03
 0.837444254500225D+03 0.614698463194649D+03 0.192592994241417D+03 -.535132336259640D+03
 0.000000000000000D+00 0.000000000000000D+00 0.000000000000000D+00 -.000000000000000D+00
 0.888963261359723D+03 0.000000000000000D+00 0.000000000000000D+00 0.888963261359723D+03
 0.888963261359723D+03 -.000000000000000D+00 -.000000000000000D+00 -.888963261359723D+03
 0.697797828495163D+03 -.584929275235588D+03 -.205165038393369D+03 0.295062467023480D+03
 0.240475966203778D+03 -.279481177350301D+02 0.131426090519306D+02 0.238484517032066D+03
 0.399205972049023D+03 0.308621380593184D+03 0.118821043945984D+03 -.223606375302559D+03
 0.440446755971482D+03 0.304256012377433D+03 0.732013853954542D+02 -.309940608752987D+03
0.244327530759D-04 0.000000000000D+00 0.000000000000D+00 0.145016585204D-05 0.000000000000D+00  6 2 -2 25 2 -2 21 0 0.22015433D+00 0.84959838D-01 0.42846485D+06 0.42846485D+06 0.42846485D+06 0.10732820D+01  1  2  2  4  6  5       -2 0.524179586779D-04 0.100000000000D+01
0.104123003350D-04 0.000000000000D+00 -.938282051031D-07 0.145016585204D-05 0.000000000000D+00  6 2 -2 25 2 -2 21 2 0.22015433D+00 0.84959838D-01 0.42846485D+06 0.42846485D+06 0.42846485D+06 0.10732820D+01  1  2  3  4  6  5       -2 0.257325047810D-04 0.100000000000D+01
-.154361233280D-04 0.000000000000D+00 0.000000000000D+00 0.145016585204D-05 0.000000000000D+00  6 2 -2 25 2 -2 21 2 0.22015433D+00 0.84959838D-01 0.42846485D+06 0.42846485D+06 0.42846485D+06 0.10732820D+01  1  2 15  4  6  5       -2 -.381481617469D-04 0.100000000000D+01
-.870934817171D-03 0.000000000000D+00 0.000000000000D+00 0.145016585204D-05 0.000000000000D+00  6 2 -2 25 2 -2 21 2 0.22015433D+00 0.84959838D-01 0.42846485D+06 0.42846485D+06 0.42846485D+06 0.10732820D+01  1  2  4  4  6  5       -2 -.215239031008D-02 0.100000000000D+01
-.357301946969D-03 0.000000000000D+00 0.000000000000D+00 0.145016585204D-05 0.000000000000D+00  6 2 -2 25 2 -2 21 2 0.22015433D+00 0.84959838D-01 0.42846485D+06 0.42846485D+06 0.42846485D+06 0.10732820D+01  1  2  5  4  6  5       -2 -.883020443400D-03 0.100000000000D+01
0.583478061730D-03 0.000000000000D+00 -.000000000000D+00 0.145016585204D-05 0.000000000000D+00  6 2 -2 25 2 -2 21 2 0.22015433D+00 0.84959838D-01 0.42846485D+06 0.42846485D+06 0.42846485D+06 0.10732820D+01  1  2  6  4  6  5       -2 0.144198222583D-02 0.100000000000D+01
  </mgrwgt>
  </event>
  <event>
  5     66 0.15870568E-05 0.62757042E+02 0.75467711E-02 0.91024851E-01
        2 -1    0    0  502    0 0.00000000E+00 0.00000000E+00 0.78309548E+03 0.78309555E+03 0.32000000E+00 0.0000E+00 0.9000E+01
       -2 -1    0    0    0  501 0.00000000E+00 0.00000000E+00 -.14961958E+04 0.14961958E+04 0.32000000E+00 0.0000E+00 0.9000E+01
       25  1    1    2    0    0 -.12625098E+03 -.54444773E+03 -.72502195E+03 0.92392882E+03 0.12500000E+03 0.0000E+00 0.9000E+01
        2  1    1    2  502    0 0.50086213E+02 0.37821352E+02 0.58402933E+03 0.58739207E+03 0.32000000E+00 0.0000E+00 0.9000E+01
       -2  1    1    2    0  501 0.76164764E+02 0.50662638E+03 -.57210768E+03 0.76797048E+03 0.32000000E+00 0.0000E+00 0.9000E+01
#aMCatNLO 1  0  0  1  2 0.11913977D+03 0.00000000D+00  -5  6  0 0.00000000D+00 0.00000000D+00 0.00000000D+00 0.00000000D+00 0.00000000D+00
  <mgrwgt>
 0.4270238742D-03    7    2    0
 0.108243442094913D+04 0.000000000000000D+00 0.000000000000000D+00 0.108243442094913D+04
 0.108243442094913D+04 0.000000000000000D+00 0.000000000000000D+00 -.108243442094913D+04
 0.733964648237813D+03 -.126261393937071D+03 -.544511331614461D+03 -.458960319643616D+03
 0.810749846533198D+03 0.500821627353868D+02 0.378182933568152D+02 0.808317306085258D+03
 0.620154347127253D+03 0.761792312016837D+02 0.506693038257646D+03 -.349356986441642D+03
 0.000000000000000D+00 -.000000000000000D+00 0.000000000000000D+00 0.000000000000000D+00
 0.134479980380330D+04 0.000000000000000D+00 0.000000000000000D+00 0.134479980380330D+04
 0.112895188995474D+04 0.000000000000000D+00 0.000000000000000D+00 -.112895188995474D+04
 0.779405845317585D+03 -.958142145538618D+02 -.609937318908488D+03 -.458960319643616D+03
 0.813187570944540D+03 0.827538145665843D+02 -.323877198399819D+02 0.808317306085258D+03
 0.582142684016079D+03 0.100367989694734D+03 0.454715369459288D+03 -.349356986441642D+03
 0.299015593479839D+03 -.873075897074567D+02 0.187609669289182D+03 0.215847913848567D+03
0.568977074918D-03 0.000000000000D+00 0.000000000000D+00 0.326769042435D-05 0.000000000000D+00  6 2 -2 25 2 -2 21 0 0.12047624D+00 0.23018398D+00 0.32942406D+06 0.32942406D+06 0.32942406D+06 0.10815583D+01  1  2  2  1  6  1        2 0.198225821747D-03 0.100000000000D+01
0.227665247564D-03 0.000000000000D+00 -.218502178279D-05 0.326769042435D-05 0.000000000000D+00  6 2 -2 25 2 -2 21 2 0.12047624D+00 0.23018398D+00 0.32942406D+06 0.32942406D+06 0.32942406D+06 0.10815583D+01  1  2  3  1  6  1        2 0.927816490231D-04 0.100000000000D+01
-.373334726237D-03 0.000000000000D+00 0.000000000000D+00 0.326769042435D-05 0.000000000000D+00  6 2 -2 25 2 -2 21 2 0.12047624D+00 0.23018398D+00 0.32942406D+06 0.32942406D+06 0.32942406D+06 0.10815583D+01  1  2 15  1  6  1        2 -.152147119108D-03 0.100000000000D+01
-.643815401652D-04 0.000000000000D+00 0.000000000000D+00 0.326769042435D-05 0.000000000000D+00  6 2 -2 25 2 -2 21 2 0.12047624D+00 0.23018398D+00 0.32942406D+06 0.32942406D+06 0.32942406D+06 0.10815583D+01  1  2  4  1  6  1        2 -.262377570889D-04 0.100000000000D+01
-.257838485646D-02 0.000000000000D+00 -.651215510876D-03 0.326769042435D-05 0.000000000000D+00  6 2 -2 25 2 -2 21 2 0.15312866D+00 0.23018398D+00 0.32942406D+06 0.32942406D+06 0.32942406D+06 0.10815583D+01  1  2  5  1  6  1        2 -.760633410162D-03 0.100000000000D+01
0.267553918307D-02 0.000000000000D+00 0.632926253872D-03 0.326769042435D-05 0.000000000000D+00  6 2 -2 25 2 -2 21 2 0.12047624D+00 0.23018398D+00 0.32942406D+06 0.32942406D+06 0.32942406D+06 0.10815583D+01  1  2  6  1  6  1        2 0.109037694636D-02 0.100000000000D+01
-.744267577582D-04 0.000000000000D+00 -.213718700659D-04 0.326769042435D-05 0.000000000000D+00  6 21 -2 25 2 -2 -2 2 0.15312866D+00 0.23018398D+00 0.32942406D+06 0.32942406D+06 0.32942406D+06 0.10815583D+01  1  2  5  5  6  1        2 -.153422565497D-04 0.100000000000D+01
  </mgrwgt>
  </event>
  <event>
  5     66 0.15870568E-05 0.43969147E+02 0.75467711E-02 0.92757675E-01
        2 -1    0    0  502    0 0.00000000E+00 0.00000000E+00 0.23085007E+04 0.23085008E+04 0.32000000E+00 0.0000E+00 0.9000E+01
       -2 -1    0    0    0  501 0.00000000E+00 0.00000000E+00 -.41841620E+03 0.41841632E+03 0.32000000E+00 0.0000E+00 0.9000E+01
       25  1    1    2    0    0 0.53678423E+03 -.77997937E+02 0.71468140E+03 0.90587830E+03 0.12500000E+03 0.0000E+00 0.9000E+01
        2  1    1    2  502    0 0.39268894E+02 0.19805008E+02 0.12379085E+04 0.12386895E+04 0.32000000E+00 0.0000E+00 0.9000E+01
       -2  1    1    2    0  501 -.57605313E+03 0.58192929E+02 -.62505326E+02 0.58234924E+03 0.32000000E+00 0.0000E+00 0.9000E+01
#aMCatNLO 1  0  0  4  1 0.86584677D+01 0.00000000D+00  -5  6  0 0.00000000D+00 0.00000000D+00 0.00000000D+00 0.00000000D+00 0.00000000D+00
  <mgrwgt>
 0.1403418903D-02    9    2    0
 0.982809390426559D+03 0.000000000000000D+00 0.000000000000000D+00 0.982809390426559D+03
 0.982809390426559D+03 -.000000000000000D+00 -.000000000000000D+00 -.982809390426559D+03
 0.569623478746576D+03 0.536878425223608D+03 -.780036735340656D+02 0.120510957941430D+03
 0.527968013357257D+03 0.392587567713462D+02 0.197998958093550D+02 0.526133953733377D+03
 0.868027288749284D+03 -.576137181994954D+03 0.582037777247105D+02 -.646644911674807D+03
 0.000000000000000D+00 0.000000000000000D+00 0.000000000000000D+00 0.000000000000000D+00
 0.982809390426559D+03 0.000000000000000D+00 0.000000000000000D+00 0.982809390426559D+03
 0.982809390426559D+03 -.000000000000000D+00 -.000000000000000D+00 -.982809390426559D+03
 0.569646705849108D+03 0.536884686463691D+03 -.780005157188037D+02 0.120594869182422D+03
 0.303523173221144D+03 0.203108963384265D+02 0.197380151042205D+02 0.302198932711398D+03
 0.867926032853415D+03 -.576127641483258D+03 0.582085894190451D+02 -.646517052630053D+03
 0.224522868929450D+03 0.189320586811405D+02 0.539111955379852D-01 0.223723250736234D+03
0.125821602034D-04 0.000000000000D+00 0.000000000000D+00 0.648417200964D-05 0.000000000000D+00  6 2 -2 25 2 -2 21 0 0.35515397D+00 0.64371734D-01 0.34796349D+06 0.34796349D+06 0.34796349D+06 0.10798183D+01  1  2  2  3  6  4        2 0.165112214887D-04 0.100000000000D+01
0.567277184974D-05 0.000000000000D+00 -.483188081399D-07 0.648417200964D-05 0.000000000000D+00  6 2 -2 25 2 -2 21 2 0.35515397D+00 0.64371734D-01 0.34796349D+06 0.34796349D+06 0.34796349D+06 0.10798183D+01  1  2  3  3  6  4        2 0.868001868567D-05 0.100000000000D+01
-.830359769451D-05 0.000000000000D+00 0.000000000000D+00 0.648417200964D-05 0.000000000000D+00  6 2 -2 25 2 -2 21 2 0.35515397D+00 0.64371734D-01 0.34796349D+06 0.34796349D+06 0.34796349D+06 0.10798183D+01  1  2 15  3  6  4        2 -.127054965466D-04 0.100000000000D+01
0.121346793982D-08 0.000000000000D+00 0.000000000000D+00 0.648417200964D-05 0.000000000000D+00  6 2 -2 25 2 -2 21 2 0.35515397D+00 0.64371734D-01 0.34990179D+06 0.34990179D+06 0.34990179D+06 0.10796422D+01  1  2 12  3  6  4        2 0.185547745910D-08 0.100000000000D+01
0.207309265461D-02 0.000000000000D+00 0.000000000000D+00 0.648417200964D-05 0.000000000000D+00  6 2 -2 25 2 -2 21 2 0.35515397D+00 0.64371734D-01 0.34990179D+06 0.34990179D+06 0.34990179D+06 0.10796422D+01  1  2 12  3  6  4        2 0.316990384749D-02 0.100000000000D+01
-.233407097599D-02 0.000000000000D+00 0.000000000000D+00 0.648417200964D-05 0.000000000000D+00  6 2 -2 25 2 -2 21 2 0.35515397D+00 0.64371734D-01 0.34796349D+06 0.34796349D+06 0.34796349D+06 0.10798183D+01  1  2  4  3  6  4        2 -.357140745686D-02 0.100000000000D+01
-.232413688097D-02 0.000000000000D+00 0.000000000000D+00 0.648417200964D-05 0.000000000000D+00  6 2 -2 25 2 -2 21 2 0.35515397D+00 0.64371734D-01 0.34796349D+06 0.34796349D+06 0.34796349D+06 0.10798183D+01  1  2  5  3  6  4        2 -.355620710461D-02 0.100000000000D+01
0.349408143253D-02 0.000000000000D+00 -.000000000000D+00 0.648417200964D-05 0.000000000000D+00  6 2 -2 25 2 -2 21 2 0.35515397D+00 0.64371734D-01 0.34796349D+06 0.34796349D+06 0.34796349D+06 0.10798183D+01  1  2  6  3  6  4        2 0.534636204786D-02 0.100000000000D+01
0.149108251820D-05 0.000000000000D+00 0.000000000000D+00 0.648417200964D-05 0.196021516003D-06  6 2 -2 25 2 -2 21 2 0.35515397D+00 0.64371734D-01 0.34990179D+06 0.34990179D+06 0.34990179D+06 0.10796422D+01  1  2 11  3  6  4        2 0.227996959078D-05 0.100000000000D+01
  </mgrwgt>
  </event>
  <event>
  5     66 0.15870568E-05 0.70356838E+02 0.75467711E-02 0.80722181E-01
        2 -1    0    0  502    0 0.00000000E+00 0.00000000E+00 0.31198946E+04 0.31198946E+04 0.32000000E+00 0.0000E+00 0.9000E+01
       -2 -1    0    0    0  501 0.00000000E+00 0.00000000E+00 -.41735193E+03 0.41735205E+03 0.32000000E+00 0.0000E+00 0.9000E+01
       25  1    1    2    0    0 -.52192334E+03 0.30181644E+03 0.62642856E+03 0.87837058E+03 0.12500000E+03 0.0000E+00 0.9000E+01
        2  1    1    2  502    0 0.45910053E+03 -.33347612E+03 0.23286173E+04 0.23967558E+04 0.32000000E+00 0.0000E+00 0.9000E+01
       -2  1    1    2    0  501 0.62822816E+02 0.31659686E+02 -.25250324E+03 0.26212026E+03 0.32000000E+00 0.0000E+00 0.9000E+01
#aMCatNLO 1  0  0  2  1 0.65004607D+02 0.00000000D+00  -5  6  0 0.00000000D+00 0.00000000D+00 0.00000000D+00 0.00000000D+00 0.00000000D+00
  <mgrwgt>
 0.2028020829D-02    5    4    0
 0.114109345417994D+04 0.000000000000000D+00 0.000000000000000D+00 0.114109345417994D+04
 0.114109345417994D+04 0.000000000000000D+00 0.000000000000000D+00 -.114109345417994D+04
 0.619582548760882D+03 -.521912946543930D+03 0.301801024619471D+03 -.691415395945231D+02
 0.957260176275540D+03 0.459083289466005D+03 -.333463602791801D+03 0.770967965631039D+03
 0.705344183323459D+03 0.628296570779254D+02 0.316625781723299D+02 -.701826426036516D+03
 0.000000000000000D+00 0.000000000000000D+00 -.000000000000000D+00 -.000000000000000D+00
 0.224326556793516D+04 0.000000000000000D+00 0.000000000000000D+00 0.224326556793516D+04
 0.314432693757869D+04 0.000000000000000D+00 0.000000000000000D+00 -.314432693757869D+04
 0.139702834471728D+04 -.120584962029978D+04 0.690803399433511D+03 -.691415395945231D+02
 0.781984836471431D+03 -.130784320944922D+03 0.203515035394241D+01 0.770967965631039D+03
 0.922800705448821D+03 -.489358176093449D+03 0.345730220235583D+03 -.701826426036516D+03
 0.228577861887631D+04 0.182599211733815D+04 -.103856877002304D+04 -.901061369643526D+03
 0.114109345417994D+04 0.000000000000000D+00 0.000000000000000D+00 0.114109345417994D+04
 0.114109345417994D+04 0.000000000000000D+00 0.000000000000000D+00 -.114109345417994D+04
 0.619582548760882D+03 -.521912946543930D+03 0.301801024619471D+03 -.691415395945231D+02
 0.957260176275540D+03 0.459083289466005D+03 -.333463602791801D+03 0.770967965631039D+03
 0.000000000000000D+00 0.000000000000000D+00 -.000000000000000D+00 -.000000000000000D+00
 0.705344183323459D+03 0.628296570779254D+02 0.316625781723299D+02 -.701826426036516D+03
 0.224326556793516D+04 0.000000000000000D+00 0.000000000000000D+00 0.224326556793516D+04
 0.314432693757869D+04 0.000000000000000D+00 0.000000000000000D+00 -.314432693757869D+04
 0.139702834471728D+04 -.120584962029978D+04 0.690803399433511D+03 -.691415395945231D+02
 0.781984836471431D+03 -.130784320944922D+03 0.203515035394241D+01 0.770967965631039D+03
 0.228577861887631D+04 0.182599211733815D+04 -.103856877002304D+04 -.901061369643526D+03
 0.922800705448821D+03 -.489358176093449D+03 0.345730220235583D+03 -.701826426036516D+03
0.686676192347D-02 0.000000000000D+00 0.000000000000D+00 0.733445411890D-05 0.000000000000D+00  6 2 -2 25 2 -2 21 0 0.47998379D+00 0.64208000D-01 0.39280340D+06 0.39280340D+06 0.39280340D+06 0.10759965D+01  1  2  2  2  6  2       -2 0.290706083438D-02 0.100000000000D+01
0.244268219574D-02 0.000000000000D+00 -.263701738460D-04 0.733445411890D-05 0.000000000000D+00  6 2 -2 25 2 -2 21 2 0.47998379D+00 0.64208000D-01 0.39280340D+06 0.39280340D+06 0.39280340D+06 0.10759965D+01  1  2  3  2  6  2       -2 0.119726642692D-02 0.100000000000D+01
-.423789090973D-02 0.000000000000D+00 0.000000000000D+00 0.733445411890D-05 0.000000000000D+00  6 2 -2 25 2 -2 21 2 0.47998379D+00 0.64208000D-01 0.39280340D+06 0.39280340D+06 0.39280340D+06 0.10759965D+01  1  2 15  2  6  2       -2 -.207717750431D-02 0.100000000000D+01
0.379831380433D-01 0.000000000000D+00 -.105103792394D-01 0.733445411890D-05 0.000000000000D+00  6 2 -2 25 2 -2 21 2 0.47998379D+00 0.71471813D+00 0.39280340D+06 0.39280340D+06 0.39280340D+06 0.10759965D+01  1  2  5  2  6  2       -2 0.663720126331D-06 0.100000000000D+01
0.889304989171D-02 0.000000000000D+00 -.297664547161D-02 0.733445411890D-05 0.000000000000D+00  6 2 21 25 2 2 -2 2 0.47998379D+00 0.71471813D+00 0.39280340D+06 0.39280340D+06 0.39280340D+06 0.10759965D+01  3  4  5  6  5  2       -2 0.207352059488D-06 0.100000000000D+01
  </mgrwgt>
  </event>
  <event>
  6     66 0.15870568E-05 0.89802832E+02 0.75467711E-02 0.93301801E-01
        2 -1    0    0  502    0 0.00000000E+00 0.00000000E+00 0.10558224E+04 0.10558225E+04 0.32000000E+00 0.0000E+00 0.9000E+01
       -2 -1    0    0    0  501 0.00000000E+00 0.00000000E+00 -.36504329E+03 0.36504343E+03 0.32000000E+00 0.0000E+00 0.9000E+01
       25  1    1    2    0    0 0.50105261E+03 -.23741482E+03 0.27867904E+03 0.63301384E+03 0.12500000E+03 0.0000E+00 0.9000E+01
        2  1    1    2  502    0 -.39918887E+03 0.21350438E+03 0.47763028E+03 0.65807800E+03 0.32000000E+00 0.0000E+00 0.9000E+01
       -2  1    1    2    0  503 -.64773849E+02 0.15287261E+02 -.18151740E+02 0.68985070E+02 0.32000000E+00 0.0000E+00 0.9000E+01
       21  1    1    2  503  501 -.37089894E+02 0.86231749E+01 -.47378461E+02 0.60788983E+02 0.75000000E+00 0.0000E+00 0.9000E+01
#aMCatNLO 2  0  0  5  2 0.19954796D+02 0.00000000D+00  -5  6  0 0.00000000D+00 0.00000000D+00 0.00000000D+00 0.00000000D+00 0.00000000D+00
  <mgrwgt>
 0.9413096854D-04    3    2    0
 0.620822861774894D+03 0.000000000000000D+00 0.000000000000000D+00 0.620822861774894D+03
 0.620822861774894D+03 -.000000000000000D+00 -.000000000000000D+00 -.620822861774894D+03
 0.570368783496015D+03 0.502193113337403D+03 -.237686928903236D+03 -.316630688935612D+02
 0.486987138215583D+03 -.398235545163611D+03 0.213285375793465D+03 0.181863332830686D+03
 0.184289801838190D+03 -.103957568173792D+03 0.244015531097708D+02 -.150200263937125D+03
 0.000000000000000D+00 0.000000000000000D+00 0.000000000000000D+00 -.000000000000000D+00
 0.620822861774894D+03 0.000000000000000D+00 0.000000000000000D+00 0.620822861774894D+03
 0.620822861774894D+03 -.000000000000000D+00 -.000000000000000D+00 -.620822861774894D+03
 0.569354513383668D+03 0.501060808703394D+03 -.237421147468093D+03 -.332990484366869D+02
 0.487358822856695D+03 -.399203548932483D+03 0.213512591529573D+03 0.180464738922317D+03
 0.885833226731054D+02 -.645000587691119D+02 0.152226953950237D+02 -.587793928132892D+02
 0.963490646363191D+02 -.373572010017991D+02 0.868586054349623D+01 -.883862976723412D+02
-.676501095936D-07 0.000000000000D+00 0.000000000000D+00 0.251264039784D-07 0.000000000000D+00  6 2 -2 25 2 -2 21 2 0.16243423D+00 0.56160521D-01 0.31681190D+06 0.31681190D+06 0.31681190D+06 0.10828042D+01  1  2 13  4  6  5       -2 -.696092531150D-06 0.100000000000D+01
-.848613932495D-05 0.000000000000D+00 0.000000000000D+00 0.251264039784D-07 0.000000000000D+00  6 2 -2 25 2 -2 21 2 0.16243423D+00 0.56160521D-01 0.31681190D+06 0.31681190D+06 0.31681190D+06 0.10828042D+01  1  2 13  4  6  5       -2 -.873189746164D-04 0.100000000000D+01
0.177019558818D-04 0.000000000000D+00 0.000000000000D+00 0.251264039784D-07 0.252190256115D-09  6 2 -2 25 2 -2 21 2 0.16243423D+00 0.56160521D-01 0.31681190D+06 0.31681190D+06 0.31681190D+06 0.10828042D+01  1  2  1  4  6  5       -2 0.182146035684D-03 0.100000000000D+01
  </mgrwgt>
  </event>
  <event>
  5     66 0.15870568E-05 0.39086273E+02 0.75467711E-02 0.89637953E-01
        2 -1    0    0  502    0 0.00000000E+00 0.00000000E+00 0.23068961E+04 0.23068961E+04 0.32000000E+00 0.0000E+00 0.9000E+01
       -2 -1    0    0    0  501 0.00000000E+00 0.00000000E+00 -.94792413E+03 0.94792419E+03 0.32000000E+00 0.0000E+00 0.9000E+01
       25  1    1    2    0    0 -.44692007E+03 0.23957709E+03 -.26054761E+03 0.58364783E+03 0.12500000E+03 0.0000E+00 0.9000E+01
        2  1    1    2  502    0 0.41283268E+03 -.22045210E+03 0.21190496E+04 0.21701155E+04 0.32000000E+00 0.0000E+00 0.9000E+01
       -2  1    1    2    0  501 0.34087389E+02 -.19124992E+02 -.49953005E+03 0.50105697E+03 0.32000000E+00 0.0000E+00 0.9000E+01
#aMCatNLO 1  0  0  1  2 0.12934095D+02 0.00000000D+00  -5  6  0 0.00000000D+00 0.00000000D+00 0.00000000D+00 0.00000000D+00 0.00000000D+00
  <mgrwgt>
 0.5996292546D-02    7    2    0
 0.147877063173243D+04 0.000000000000000D+00 0.000000000000000D+00 0.147877063173243D+04
 0.147877063173243D+04 0.000000000000000D+00 0.000000000000000D+00 -.147877063173243D+04
 0.762031861525641D+03 -.446920205813697D+03 0.239577162873926D+03 -.554916814166733D+03
 0.141455535026170D+04 0.412832577207222D+03 -.220452040297708D+03 0.133489213050307D+04
 0.780954051677522D+03 0.340876286064756D+02 -.191251225762174D+02 -.779975316336337D+03
 0.000000000000000D+00 0.000000000000000D+00 -.000000000000000D+00 0.000000000000000D+00
 0.261417564153573D+04 0.000000000000000D+00 0.000000000000000D+00 0.261417564153573D+04
 0.158185368224509D+04 0.000000000000000D+00 0.000000000000000D+00 -.158185368224509D+04
 0.870582648665626D+03 -.556404810806671D+03 0.353228203890762D+03 -.554916814166733D+03
 0.135436322701850D+04 0.227146394217391D+03 -.276995706642707D+02 0.133489213050307D+04
 0.788381943567916D+03 -.711534619682813D+02 0.901209171052144D+02 -.779975316336337D+03
 0.118270150452877D+04 0.400411878557561D+03 -.415649550331705D+03 0.103232195929064D+04
0.146455135363D-01 0.000000000000D+00 0.000000000000D+00 0.146083955475D-03 0.000000000000D+00  6 2 -2 25 2 -2 21 0 0.35490709D+00 0.14583449D+00 0.26489381D+06 0.26489381D+06 0.26489381D+06 0.10885735D+01  1  2  2  1  6  1        2 0.275794061631D-02 0.100000000000D+01
0.640304134469D-02 0.000000000000D+00 -.562426282316D-04 0.146083955475D-03 0.000000000000D+00  6 2 -2 25 2 -2 21 2 0.35490709D+00 0.14583449D+00 0.26489381D+06 0.26489381D+06 0.26489381D+06 0.10885735D+01  1  2  3  1  6  1        2 0.142883509060D-02 0.100000000000D+01
-.918728101366D-02 0.000000000000D+00 0.000000000000D+00 0.146083955475D-03 0.000000000000D+00  6 2 -2 25 2 -2 21 2 0.35490709D+00 0.14583449D+00 0.26489381D+06 0.26489381D+06 0.26489381D+06 0.10885735D+01  1  2 15  1  6  1        2 -.205013661365D-02 0.100000000000D+01
-.343746686762D-02 0.000000000000D+00 0.000000000000D+00 0.146083955475D-03 0.000000000000D+00  6 2 -2 25 2 -2 21 2 0.35490709D+00 0.14583449D+00 0.26489381D+06 0.26489381D+06 0.26489381D+06 0.10885735D+01  1  2  4  1  6  1        2 -.767068806654D-03 0.100000000000D+01
-.208290714394D-01 0.000000000000D+00 -.679148446881D-02 0.146083955475D-03 0.000000000000D+00  6 2 -2 25 2 -2 21 2 0.63380993D+00 0.14583449D+00 0.26489381D+06 0.26489381D+06 0.26489381D+06 0.10885735D+01  1  2  5  1  6  1        2 -.275633887566D-03 0.100000000000D+01
0.219699093387D-01 0.000000000000D+00 0.579032138479D-02 0.146083955475D-03 0.000000000000D+00  6 2 -2 25 2 -2 21 2 0.35490709D+00 0.14583449D+00 0.26489381D+06 0.26489381D+06 0.26489381D+06 0.10885735D+01  1  2  6  1  6  1        2 0.490257296658D-02 0.100000000000D+01
-.970476963360D-03 0.000000000000D+00 -.432725875130D-03 0.146083955475D-03 0.000000000000D+00  6 21 -2 25 2 -2 -2 2 0.63380993D+00 0.14583449D+00 0.26489381D+06 0.26489381D+06 0.26489381D+06 0.10885735D+01  1  2  5  5  6  1        2 -.216820073042D-06 0.100000000000D+01
  </mgrwgt>
  </event>
  <event>
  5     66 0.15870568E-05 0.66322507E+02 0.75467711E-02 0.94047830E-01
        2 -1    0    0  502    0 0.00000000E+00 0.00000000E+00 0.14845939E+04 0.14845940E+04 0.32000000E+00 0.0000E+00 0.9000E+01
       -2 -1    0    0    0  501 0.00000000E+00 0.00000000E+00 -.36173618E+03 0.36173632E+03 0.32000000E+00 0.0000E+00 0.9000E+01
       25  1    1    2    0    0 0.19132732E+03 0.47680248E+03 0.34338471E+03 0.63046396E+03 0.12500000E+03 0.0000E+00 0.9000E+01
        2  1    1    2  502    0 -.99243041E+00 -.66339440E+02 0.76011633E+03 0.76300645E+03 0.32000000E+00 0.0000E+00 0.9000E+01
       -2  1    1    2    0  501 -.19033489E+03 -.41046304E+03 0.19356711E+02 0.45285987E+03 0.32000000E+00 0.0000E+00 0.9000E+01
#aMCatNLO 1  0  0  4  5 0.32673068D+01 0.00000000D+00  -5  6  0 0.00000000D+00 0.00000000D+00 0.00000000D+00 0.00000000D+00 0.00000000D+00
  <mgrwgt>
 0.4680242308D-03    6    2    0
 0.732824325907192D+03 0.000000000000000D+00 0.000000000000000D+00 0.732824325907192D+03
 0.732824325907192D+03 -.000000000000000D+00 -.000000000000000D+00 -.732824325907192D+03
 0.531211795803540D+03 0.191365714963486D+03 0.476873537363419D+03 -.503166423744278D+02
 0.378709702785047D+03 -.992066087526365D+00 -.663150864442878D+02 0.372857029031642D+03
 0.555727153225798D+03 -.190373648875959D+03 -.410558450919131D+03 -.322540386657215D+03
 0.000000000000000D+00 -.000000000000000D+00 0.000000000000000D+00 0.000000000000000D+00
 0.732824325907192D+03 0.000000000000000D+00 0.000000000000000D+00 0.732824325907192D+03
 0.732824325907192D+03 -.000000000000000D+00 -.000000000000000D+00 -.732824325907192D+03
 0.531092811035740D+03 0.191364473055178D+03 0.476790521465804D+03 -.498498849198757D+02
 0.477371994673418D+01 0.116287471095890D+01 0.239276729444430D+01 0.396368379302502D+01
 0.555508550632797D+03 -.190374947988138D+03 -.410645290634241D+03 -.322052129762534D+03
 0.374273570199114D+03 -.215239977799965D+01 -.685379981260073D+02 0.367938330889384D+03
0.171145117829D-03 0.000000000000D+00 0.000000000000D+00 0.116052490240D-05 0.000000000000D+00  6 2 -2 25 2 -2 21 0 0.22839908D+00 0.55651733D-01 0.27441603D+06 0.27441603D+06 0.27441603D+06 0.10874276D+01  1  2  2  3  6  4        2 0.873918874329D-03 0.100000000000D+01
0.461788525899D-04 0.000000000000D+00 -.657242316009D-06 0.116052490240D-05 0.000000000000D+00  6 2 -2 25 2 -2 21 2 0.22839908D+00 0.55651733D-01 0.27441603D+06 0.27441603D+06 0.27441603D+06 0.10874276D+01  1  2  3  3  6  4        2 0.278837030077D-03 0.100000000000D+01
-.948944196774D-04 0.000000000000D+00 0.000000000000D+00 0.116052490240D-05 0.000000000000D+00  6 2 -2 25 2 -2 21 2 0.22839908D+00 0.55651733D-01 0.27441603D+06 0.27441603D+06 0.27441603D+06 0.10874276D+01  1  2 15  3  6  4        2 -.572991243172D-03 0.100000000000D+01
0.403166709413D-10 0.000000000000D+00 0.000000000000D+00 0.116052490240D-05 0.000000000000D+00  6 2 -2 25 2 -2 21 2 0.22839908D+00 0.55651733D-01 0.27699609D+06 0.27699609D+06 0.27699609D+06 0.10871246D+01  1  2 12  3  6  4        2 0.243202428668D-09 0.100000000000D+01
-.831139560100D-04 0.000000000000D+00 0.000000000000D+00 0.116052490240D-05 0.000000000000D+00  6 2 -2 25 2 -2 21 2 0.22839908D+00 0.55651733D-01 0.27441603D+06 0.27441603D+06 0.27441603D+06 0.10874276D+01  1  2  5  3  6  4        2 -.501858477465D-03 0.100000000000D+01
0.646714393847D-04 0.000000000000D+00 0.000000000000D+00 0.116052490240D-05 0.287881359207D-08  6 2 -2 25 2 -2 21 2 0.22839908D+00 0.55651733D-01 0.27699609D+06 0.27699609D+06 0.27699609D+06 0.10871246D+01  1  2 11  3  6  4        2 0.390117803792D-03 0.100000000000D+01
  </mgrwgt>
  </event>
  <event>
  5     66 0.15870568E-05 0.46548505E+02 0.75467711E-02 0.86818310E-01
        2 -1    0    0  502    0 0.00000000E+00 0.00000000E+00 0.38631757E+04 0.38631757E+04 0.32000000E+00 0.0000E+00 0.9000E+01
       -2 -1    0    0    0  501 0.00000000E+00 0.00000000E+00 -.67150714E+03 0.67150721E+03 0.32000000E+00 0.0000E+00 0.9000E+01
       25  1    1    2    0    0 -.64061983E+03 -.22897891E+03 0.99633011E+03 0.12128989E+04 0.12500000E+03 0.0000E+00 0.9000E+01
        2  1    1    2  502    0 0.60579739E+03 0.19809568E+03 0.27207030E+04 0.27943617E+04 0.32000000E+00 0.0000E+00 0.9000E+01
       -2  1    1    2    0  501 0.34822442E+02 0.30883228E+02 -.52536450E+03 0.52742235E+03 0.32000000E+00 0.0000E+00 0.9000E+01
#aMCatNLO 1  0  0  1  2 0.35391619D+02 0.00000000D+00  -5  6  0 0.00000000D+00 0.00000000D+00 0.00000000D+00 0.00000000D+00 0.00000000D+00
  <mgrwgt>
 0.3699398610D-03    4    2    0
 0.161063660120388D+04 0.000000000000000D+00 0.000000000000000D+00 0.161063660120388D+04
 0.161063660120388D+04 0.000000000000000D+00 0.000000000000000D+00 -.161063660120388D+04
 0.720265167464610D+03 -.640591615986553D+03 -.228971379899511D+03 0.200926355109210D+03
 0.123794388423050D+04 0.605766034556535D+03 0.198085425404533D+03 0.106127976336292D+04
 0.126306415071266D+04 0.348255814300182D+02 0.308859544949779D+02 -.126220611847213D+04
 0.000000000000000D+00 -.000000000000000D+00 0.000000000000000D+00 -.000000000000000D+00
 0.183789475473550D+04 0.000000000000000D+00 0.000000000000000D+00 0.183789475473550D+04
 0.201530011837802D+04 0.000000000000000D+00 0.000000000000000D+00 -.201530011837802D+04
 0.750655183335332D+03 -.618660009128378D+03 -.353194843105054D+03 0.200926355109210D+03
 0.124078023636280D+04 0.642724121983338D+03 -.112499709163882D+02 0.106127976336292D+04
 0.127757120224483D+04 0.727067730939598D+02 -.183678023843603D+03 -.126220611847213D+04
 0.584188251170552D+03 -.967708859489199D+02 0.548122837865046D+03 -.177405363642530D+03
0.995680418689D-02 0.000000000000D+00 0.000000000000D+00 0.428256952981D-04 0.000000000000D+00  6 2 -2 25 2 -2 21 0 0.59433473D+00 0.10330880D+00 0.47303540D+06 0.47303540D+06 0.47303540D+06 0.10702162D+01  1  2  2  1  6  1        2 0.412616880316D-03 0.100000000000D+01
0.614931419903D-02 0.000000000000D+00 -.382367497644D-04 0.428256952981D-04 0.000000000000D+00  6 2 -2 25 2 -2 21 2 0.59433473D+00 0.10330880D+00 0.47303540D+06 0.47303540D+06 0.47303540D+06 0.10702162D+01  1  2  3  1  6  1        2 0.291874875363D-03 0.100000000000D+01
-.696863837863D-02 0.000000000000D+00 0.000000000000D+00 0.428256952981D-04 0.000000000000D+00  6 2 -2 25 2 -2 21 2 0.59433473D+00 0.10330880D+00 0.47303540D+06 0.47303540D+06 0.47303540D+06 0.10702162D+01  1  2 15  1  6  1        2 -.330763788023D-03 0.100000000000D+01
-.798090549879D-04 0.000000000000D+00 0.000000000000D+00 0.428256952981D-04 0.000000000000D+00  6 2 -2 25 2 -2 21 2 0.59433473D+00 0.10330880D+00 0.47303540D+06 0.47303540D+06 0.47303540D+06 0.10702162D+01  1  2  4  1  6  1        2 -.378810664466D-05 0.100000000000D+01
  </mgrwgt>
  </event>
  <event>
  6     66 -.15870568E-05 0.18602647E+03 0.75467711E-02 0.91639987E-01
        2 -1    0    0  503    0 0.00000000E+00 0.00000000E+00 0.99711912E+03 0.99711917E+03 0.32000000E+00 0.0000E+00 0.9000E+01
       -2 -1    0    0    0  501 0.00000000E+00 0.00000000E+00 -.14893478E+04 0.14893478E+04 0.32000000E+00 0.0000E+00 0.9000E+01
       25  1    1    2    0    0 -.46437764E+03 0.13276858E+03 -.11907130E+03 0.51291039E+03 0.12500000E+03 0.0000E+00 0.9000E+01
        2  1    1    2  502    0 0.51647266E+03 -.32117294E+03 0.60793647E+03 0.85993192E+03 0.32000000E+00 0.0000E+00 0.9000E+01
       -2  1    1    2    0  501 -.39079453E+02 0.18851089E+03 -.10377659E+04 0.10554722E+04 0.32000000E+00 0.0000E+00 0.9000E+01
       21  1    1    2  503  502 -.13015560E+02 -.10652606E+00 0.56672070E+02 0.58152404E+02 0.75000000E+00 0.0000E+00 0.9000E+01
#aMCatNLO 2  0  0  1  4 0.13015996D+02 0.00000000D+00  -5  6  0 0.00000000D+00 0.00000000D+00 0.00000000D+00 0.00000000D+00 0.00000000D+00
  <mgrwgt>
 -.6859916305D-03    6    2    0
 0.118271405967626D+04 0.000000000000000D+00 0.000000000000000D+00 0.118271405967626D+04
 0.118271405967626D+04 0.000000000000000D+00 0.000000000000000D+00 -.118271405967626D+04
 0.501443614374090D+03 -.467114323266064D+03 0.132721575041788D+03 -.314498245865298D+01
 0.102101050556365D+04 0.510832633954987D+03 -.321210085864146D+03 0.823611894824920D+03
 0.842973999414785D+03 -.437183106889230D+02 0.188488510822358D+03 -.820466912366267D+03
 0.000000000000000D+00 -.000000000000000D+00 -.000000000000000D+00 0.000000000000000D+00
 0.125498998788693D+04 0.000000000000000D+00 0.000000000000000D+00 0.125498998788693D+04
 0.118331811491721D+04 0.000000000000000D+00 0.000000000000000D+00 -.118331811491721D+04
 0.498886927492071D+03 -.464362228791359D+03 0.132744099604221D+03 -.314498245865298D+01
 0.102382230878282D+04 0.516458347511188D+03 -.321164042119140D+03 0.823611894824920D+03
 0.842754693690063D+03 -.390805590378629D+02 0.188526468576924D+03 -.820466912366267D+03
 0.728441728391794D+02 -.130155596819663D+02 -.106526062005348D+00 0.716718729697189D+02
-.162782032050D-07 0.000000000000D+00 0.000000000000D+00 0.593965614287D-06 0.000000000000D+00  6 2 -2 25 2 -2 21 2 0.15343838D+00 0.22901309D+00 0.43073063D+06 0.43073063D+06 0.43073063D+06 0.10731179D+01  1  2 13  1  6  1        2 -.471105766549D-08 0.100000000000D+01
-.804132034119D-02 0.000000000000D+00 0.000000000000D+00 0.593965614287D-06 0.000000000000D+00  6 2 -2 25 2 -2 21 2 0.15385454D+00 0.22901309D+00 0.43073063D+06 0.43073063D+06 0.43073063D+06 0.10731179D+01  1  2 13  1  6  1        2 -.231817619626D-02 0.100000000000D+01
-.277901092040D-02 0.000000000000D+00 0.000000000000D+00 0.593965614287D-06 0.000000000000D+00  6 2 -2 25 2 -2 21 2 0.14456811D+00 0.22901309D+00 0.42143100D+06 0.42143100D+06 0.42143100D+06 0.10737974D+01  1  2  8  1  6  1        2 -.877372114515D-03 0.100000000000D+01
-.420411579377D-02 0.000000000000D+00 0.000000000000D+00 0.593965614287D-06 0.000000000000D+00  6 2 -2 25 2 -2 21 2 0.15343537D+00 0.22901309D+00 0.42143100D+06 0.42143100D+06 0.42143100D+06 0.10737974D+01  1  2  9  1  6  1        2 -.122010442381D-02 0.100000000000D+01
0.419667778067D-02 0.000000000000D+00 0.000000000000D+00 0.593965614287D-06 0.000000000000D+00  6 2 -2 25 2 -2 21 2 0.14456811D+00 0.22901309D+00 0.42143100D+06 0.42143100D+06 0.42143100D+06 0.10737974D+01  1  2 10  1  6  1        2 0.132494911457D-02 0.100000000000D+01
0.832100868640D-02 0.000000000000D+00 0.000000000000D+00 0.593965614287D-06 0.141830861069D-07  6 2 -2 25 2 -2 21 2 0.15340270D+00 0.22913006D+00 0.43073063D+06 0.43073063D+06 0.43073063D+06 0.10731179D+01  1  2  1  1  6  1        2 0.240471670056D-02 0.100000000000D+01
  </mgrwgt>
  </event>
  <event>
  6     66 0.15870568E-05 0.64971982E+02 0.75467711E-02 0.90914239E-01
        2 -1    0    0  502    0 0.00000000E+00 0.00000000E+00 0.14730120E+04 0.14730121E+04 0.32000000E+00 0.0000E+00 0.9000E+01
       -2 -1    0    0    0  501 0.00000000E+00 0.00000000E+00 -.36081607E+03 0.36081621E+03 0.32000000E+00 0.0000E+00 0.9000E+01
       25  1    1    2    0    0 -.20051567E+03 -.61896507E+03 0.66451836E+03 0.93836770E+03 0.12500000E+03 0.0000E+00 0.9000E+01
        2  1    1    2  502    0 0.10449427E+03 0.28859930E+03 0.25852807E+03 0.40130472E+03 0.32000000E+00 0.0000E+00 0.9000E+01
       -2  1    1    2    0  503 0.18801377E+03 0.26062680E+03 0.19949646E+03 0.37825182E+03 0.32000000E+00 0.0000E+00 0.9000E+01
       21  1    1    2  503  501 -.91992367E+02 0.69738971E+02 -.10346941E+02 0.11590402E+03 0.75000000E+00 0.0000E+00 0.9000E+01
#aMCatNLO 2  0  0  5  2 0.97509711D+01 0.00000000D+00  -5  6  0 0.00000000D+00 0.00000000D+00 0.00000000D+00 0.00000000D+00 0.00000000D+00
  <mgrwgt>
 0.2705887973D-03    1    2    0
 0.729031252048751D+03 0.000000000000000D+00 0.000000000000000D+00 0.729031252048751D+03
 0.729031252048751D+03 -.000000000000000D+00 -.000000000000000D+00 -.729031252048751D+03
 0.724256563225206D+03 -.214162634233475D+03 -.665944030632290D+03 0.139912413810156D+03
 0.287300326005363D+03 0.986243518810028D+02 0.268442125527467D+03 0.274506790651069D+02
 0.446505614866932D+03 0.115538282352472D+03 0.397501905104823D+03 -.167363092875263D+03
 0.000000000000000D+00 0.000000000000000D+00 0.000000000000000D+00 -.000000000000000D+00
 0.729031252048751D+03 0.000000000000000D+00 0.000000000000000D+00 0.729031252048751D+03
 0.729031252048751D+03 -.000000000000000D+00 -.000000000000000D+00 -.729031252048751D+03
 0.673237847878351D+03 -.200481981720066D+03 -.618876640270997D+03 0.120095291116477D+03
 0.307386069943055D+03 0.104445983704916D+03 0.288471069127000D+03 0.190177485437853D+02
 0.323462415098517D+03 0.188135659855914D+03 0.260439677024442D+03 -.374710835625216D+02
 0.153976171177579D+03 -.920996618407644D+02 0.699658941195555D+02 -.101641956097741D+03
0.466664889178D-04 0.000000000000D+00 0.000000000000D+00 0.616340094876D-08 0.158504380178D-09  6 2 -2 25 2 -2 21 2 0.22661725D+00 0.55510178D-01 0.49433768D+06 0.49433768D+06 0.49433768D+06 0.10688601D+01  1  2  1  4  6  5       -2 0.270588797280D-03 0.100000000000D+01
  </mgrwgt>
  </event>
  <event>
  5     66 0.15870568E-05 0.12849951E+02 0.75467711E-02 0.91748213E-01
        2 -1    0    0  502    0 0.00000000E+00 0.00000000E+00 0.73968904E+03 0.73968911E+03 0.32000000E+00 0.0000E+00 0.9000E+01
       -2 -1    0    0    0  501 0.00000000E+00 0.00000000E+00 -.12138228E+04 0.12138229E+04 0.32000000E+00 0.0000E+00 0.9000E+01
       25  1    1    2    0    0 0.54042633E+03 -.91439962E+01 -.33491165E+03 0.64802395E+03 0.12500000E+03 0.0000E+00 0.9000E+01
        2  1    1    2  502    0 -.53531250E+03 -.26433794E+01 0.46019309E+03 0.70593501E+03 0.32000000E+00 0.0000E+00 0.9000E+01
       -2  1    1    2    0  501 -.51138284E+01 0.11787376E+02 -.59941522E+03 0.59955301E+03 0.32000000E+00 0.0000E+00 0.9000E+01
#aMCatNLO 1  0  0  2  2 0.16528654D+03 0.00000000D+00  -5  6  0 0.00000000D+00 0.00000000D+00 0.00000000D+00 0.00000000D+00 0.00000000D+00
  <mgrwgt>
 0.3946639642D-02    7    4    0
 0.947550284901466D+03 0.000000000000000D+00 0.000000000000000D+00 0.947550284901466D+03
 0.947550284901466D+03 0.000000000000000D+00 0.000000000000000D+00 -.947550284901466D+03
 0.584181657940391D+03 0.540417235152480D+03 -.914497471194067D+01 -.183054065405964D+03
 0.842813660433662D+03 -.535302837375635D+03 -.264333172790785D+01 0.650982911687057D+03
 0.468105251428880D+03 -.511439777684518D+01 0.117883064398485D+02 -.467928846281094D+03
 0.000000000000000D+00 0.000000000000000D+00 -.000000000000000D+00 -.000000000000000D+00
 0.968993596537703D+03 0.000000000000000D+00 0.000000000000000D+00 0.968993596537703D+03
 0.122364605773330D+04 0.000000000000000D+00 0.000000000000000D+00 -.122364605773330D+04
 0.545014241171281D+03 0.497827586118989D+03 -.862709202439377D+01 -.183054065405964D+03
 0.885650250643628D+03 -.600494954525324D+03 -.185060697899516D+01 0.650982911687057D+03
 0.469836333964193D+03 -.404905472715719D+02 0.122184742339288D+02 -.467928846281094D+03
 0.292138828491904D+03 0.143157915677906D+03 -.174077523053988D+01 -.254652461195599D+03
 0.947550284901466D+03 0.000000000000000D+00 0.000000000000000D+00 0.947550284901466D+03
 0.947550284901466D+03 0.000000000000000D+00 0.000000000000000D+00 -.947550284901466D+03
 0.584181657940391D+03 0.540417235152480D+03 -.914497471194067D+01 -.183054065405964D+03
 0.842813660433662D+03 -.535302837375635D+03 -.264333172790785D+01 0.650982911687057D+03
 0.000000000000000D+00 0.000000000000000D+00 -.000000000000000D+00 -.000000000000000D+00
 0.468105251428880D+03 -.511439777684518D+01 0.117883064398485D+02 -.467928846281094D+03
 0.968993596537703D+03 0.000000000000000D+00 0.000000000000000D+00 0.968993596537703D+03
 0.122364605773330D+04 0.000000000000000D+00 0.000000000000000D+00 -.122364605773330D+04
 0.545014241171281D+03 0.497827586118989D+03 -.862709202439377D+01 -.183054065405964D+03
 0.885650250643628D+03 -.600494954525324D+03 -.185060697899516D+01 0.650982911687057D+03
 0.292138828491904D+03 0.143157915677906D+03 -.174077523053988D+01 -.254652461195599D+03
 0.469836333964193D+03 -.404905472715719D+02 0.122184742339288D+02 -.467928846281094D+03
0.100907077929D-02 0.000000000000D+00 0.000000000000D+00 0.141403867516D-04 0.000000000000D+00  6 2 -2 25 2 -2 21 0 0.11379832D+00 0.18674198D+00 0.30410813D+06 0.30410813D+06 0.30410813D+06 0.10841151D+01  1  2  2  2  6  2       -2 0.745350326937D-03 0.100000000000D+01
0.931623273073D-03 0.000000000000D+00 -.387509748691D-05 0.141403867516D-04 0.000000000000D+00  6 2 -2 25 2 -2 21 2 0.11379832D+00 0.18674198D+00 0.30410813D+06 0.30410813D+06 0.30410813D+06 0.10841151D+01  1  2  3  2  6  2       -2 0.808779163865D-03 0.100000000000D+01
-.577065697947D-03 0.000000000000D+00 0.000000000000D+00 0.141403867516D-04 0.000000000000D+00  6 2 -2 25 2 -2 21 2 0.11379832D+00 0.18674198D+00 0.30410813D+06 0.30410813D+06 0.30410813D+06 0.10841151D+01  1  2 15  2  6  2       -2 -.500973651228D-03 0.100000000000D+01
-.190004858301D-04 0.000000000000D+00 0.000000000000D+00 0.141403867516D-04 0.000000000000D+00  6 2 -2 25 2 -2 21 2 0.11379832D+00 0.18674198D+00 0.30410813D+06 0.30410813D+06 0.30410813D+06 0.10841151D+01  1  2  4  2  6  2       -2 -.164950763757D-04 0.100000000000D+01
-.691441590834D-02 0.000000000000D+00 -.970824730304D-03 0.141403867516D-04 0.000000000000D+00  6 2 -2 25 2 -2 21 2 0.11379832D+00 0.24320477D+00 0.30410813D+06 0.30410813D+06 0.30410813D+06 0.10841151D+01  1  2  5  2  6  2       -2 -.251583869889D-02 0.100000000000D+01
0.695953799948D-02 0.000000000000D+00 0.937906226410D-03 0.141403867516D-04 0.000000000000D+00  6 2 -2 25 2 -2 21 2 0.11379832D+00 0.18674198D+00 0.30410813D+06 0.30410813D+06 0.30410813D+06 0.10841151D+01  1  2  6  2  6  2       -2 0.604185134355D-02 0.100000000000D+01
-.225887269006D-03 0.000000000000D+00 -.342146966617D-04 0.141403867516D-04 0.000000000000D+00  6 2 21 25 2 2 -2 2 0.11379832D+00 0.24320477D+00 0.30410813D+06 0.30410813D+06 0.30410813D+06 0.10841151D+01  3  4  5  6  5  2       -2 -.616033766268D-03 0.100000000000D+01
  </mgrwgt>
  </event>
  <event>
  5     66 0.15870568E-05 0.25898224E+02 0.75467711E-02 0.93771689E-01
        2 -1    0    0  502    0 0.00000000E+00 0.00000000E+00 0.11754898E+04 0.11754898E+04 0.32000000E+00 0.0000E+00 0.9000E+01
       -2 -1    0    0    0  501 0.00000000E+00 0.00000000E+00 -.83885806E+03 0.83885812E+03 0.32000000E+00 0.0000E+00 0.9000E+01
       25  1    1    2    0    0 -.17147952E+03 0.47673730E+03 0.26679451E+03 0.58607848E+03 0.12500000E+03 0.0000E+00 0.9000E+01
        2  1    1    2  502    0 0.20892044E+02 0.15315307E+02 0.65129632E+03 0.65181135E+03 0.32000000E+00 0.0000E+00 0.9000E+01
       -2  1    1    2    0  501 0.15058748E+03 -.49205261E+03 -.58145913E+03 0.77645810E+03 0.32000000E+00 0.0000E+00 0.9000E+01
#aMCatNLO 1  0  0  2  5 0.13168175D+02 0.00000000D+00  -5  6  0 0.00000000D+00 0.00000000D+00 0.00000000D+00 0.00000000D+00 0.00000000D+00
  <mgrwgt>
 0.1771631805D-03   11    4    0
 0.993010153814237D+03 0.000000000000000D+00 0.000000000000000D+00 0.993010153814237D+03
 0.993010153814237D+03 0.000000000000000D+00 0.000000000000000D+00 -.993010153814237D+03
 0.549321804404070D+03 -.171498709836488D+03 0.476813823920899D+03 0.171365733552811D+03
 0.550582668645246D+03 0.208870908495167D+02 0.153116761748753D+02 0.549973233004190D+03
 0.886115834579157D+03 0.150611618986972D+03 -.492125500095775D+03 -.721338966557001D+03
 0.000000000000000D+00 -.000000000000000D+00 -.000000000000000D+00 -.000000000000000D+00
 0.993371486191649D+03 0.000000000000000D+00 0.000000000000000D+00 0.993371486191649D+03
 0.112071850701684D+04 0.000000000000000D+00 0.000000000000000D+00 -.112071850701684D+04
 0.549211751014579D+03 -.168029258684543D+03 0.477921019669913D+03 0.171365733552811D+03
 0.550757571257189D+03 0.243654062320236D+02 0.164217007397351D+02 0.549973233004190D+03
 0.886094640227620D+03 0.156208714899953D+03 -.490339315327558D+03 -.721338966557001D+03
 0.128026030709099D+03 -.125448624474336D+02 -.400340508208954D+01 -.127347020825188D+03
 0.993010153814237D+03 0.000000000000000D+00 0.000000000000000D+00 0.993010153814237D+03
 0.993010153814237D+03 0.000000000000000D+00 0.000000000000000D+00 -.993010153814237D+03
 0.549321804404070D+03 -.171498709836488D+03 0.476813823920899D+03 0.171365733552811D+03
 0.550582668645246D+03 0.208870908495167D+02 0.153116761748753D+02 0.549973233004190D+03
 0.000000000000000D+00 -.000000000000000D+00 -.000000000000000D+00 -.000000000000000D+00
 0.886115834579157D+03 0.150611618986972D+03 -.492125500095775D+03 -.721338966557001D+03
 0.993371486191649D+03 0.000000000000000D+00 0.000000000000000D+00 0.993371486191649D+03
 0.112071850701684D+04 0.000000000000000D+00 0.000000000000000D+00 -.112071850701684D+04
 0.549211751014579D+03 -.168029258684543D+03 0.477921019669913D+03 0.171365733552811D+03
 0.550757571257189D+03 0.243654062320236D+02 0.164217007397351D+02 0.549973233004190D+03
 0.128026030709099D+03 -.125448624474336D+02 -.400340508208954D+01 -.127347020825188D+03
 0.886094640227620D+03 0.156208714899953D+03 -.490339315327558D+03 -.721338966557001D+03
0.283563949694D-04 0.000000000000D+00 0.000000000000D+00 0.199397200235D-04 0.000000000000D+00  6 2 -2 25 2 -2 21 0 0.18084459D+00 0.12905509D+00 0.28220693D+06 0.28220693D+06 0.28220693D+06 0.10865219D+01  1  2  2  2  6  2       -2 0.311367736039D-04 0.100000000000D+01
0.178201033152D-04 0.000000000000D+00 -.108896023093D-06 0.199397200235D-04 0.000000000000D+00  6 2 -2 25 2 -2 21 2 0.18084459D+00 0.12905509D+00 0.28220693D+06 0.28220693D+06 0.28220693D+06 0.10865219D+01  1  2  3  2  6  2       -2 0.230998828972D-04 0.100000000000D+01
-.166385977147D-04 0.000000000000D+00 0.000000000000D+00 0.199397200235D-04 0.000000000000D+00  6 2 -2 25 2 -2 21 2 0.18084459D+00 0.12905509D+00 0.28220693D+06 0.28220693D+06 0.28220693D+06 0.10865219D+01  1  2 15  2  6  2       -2 -.215683182069D-04 0.100000000000D+01
0.151688676700D-08 0.000000000000D+00 0.000000000000D+00 0.199397200235D-04 0.000000000000D+00  6 2 -2 25 2 -2 21 2 0.18084459D+00 0.14567421D+00 0.29104050D+06 0.29104050D+06 0.29104050D+06 0.10855274D+01  1  2 12  2  6  2       -2 0.141694816356D-08 0.100000000000D+01
0.951322809295D-02 0.000000000000D+00 0.000000000000D+00 0.199397200235D-04 0.000000000000D+00  6 2 -2 25 2 -2 21 2 0.18084459D+00 0.14594881D+00 0.29104050D+06 0.29104050D+06 0.29104050D+06 0.10855274D+01  1  2 12  2  6  2       -2 0.884083287054D-02 0.100000000000D+01
-.932820319390D-02 0.000000000000D+00 0.000000000000D+00 0.199397200235D-04 0.000000000000D+00  6 2 -2 25 2 -2 21 2 0.18084459D+00 0.12905509D+00 0.28220693D+06 0.28220693D+06 0.28220693D+06 0.10865219D+01  1  2  4  2  6  2       -2 -.120919838459D-01 0.100000000000D+01
-.980484516108D-02 0.000000000000D+00 -.578630178283D-04 0.199397200235D-04 0.000000000000D+00  6 2 -2 25 2 -2 21 2 0.18084459D+00 0.14567393D+00 0.28220693D+06 0.28220693D+06 0.28220693D+06 0.10865219D+01  1  2  5  2  6  2       -2 -.919229295876D-02 0.100000000000D+01
0.974072679818D-02 0.000000000000D+00 0.574410913301D-04 0.199397200235D-04 0.000000000000D+00  6 2 -2 25 2 -2 21 2 0.18084459D+00 0.12905509D+00 0.28220693D+06 0.28220693D+06 0.28220693D+06 0.10865219D+01  1  2  6  2  6  2       -2 0.126267308551D-01 0.100000000000D+01
0.290092586784D-10 0.000000000000D+00 0.000000000000D+00 0.199397200235D-04 0.000000000000D+00  6 2 21 25 2 2 -2 2 0.18084459D+00 0.14567421D+00 0.29104050D+06 0.29104050D+06 0.29104050D+06 0.10855274D+01  3  4 12  6  5  2       -2 0.232432391972D-09 0.100000000000D+01
0.184301691592D-03 0.000000000000D+00 0.000000000000D+00 0.199397200235D-04 0.000000000000D+00  6 2 21 25 2 2 -2 2 0.18084459D+00 0.14594881D+00 0.29104050D+06 0.29104050D+06 0.29104050D+06 0.10855274D+01  3  4 12  6  5  2       -2 0.146850245222D-02 0.100000000000D+01
-.187235074047D-03 0.000000000000D+00 -.110656934534D-05 0.199397200235D-04 0.000000000000D+00  6 2 21 25 2 2 -2 2 0.18084459D+00 0.14567393D+00 0.28220693D+06 0.28220693D+06 0.28220693D+06 0.10865219D+01  3  4  5  6  5  2       -2 -.150729618036D-02 0.100000000000D+01
  </mgrwgt>
  </event>
  <event>
  6     66 0.15870568E-05 0.10206171E+03 0.75467711E-02 0.90928327E-01
        2 -1    0    0  502    0 0.00000000E+00 0.00000000E+00 0.17780653E+04 0.17780654E+04 0.32000000E+00 0.0000E+00 0.9000E+01
       -2 -1    0    0    0  501 0.00000000E+00 0.00000000E+00 -.40462393E+03 0.40462405E+03 0.32000000E+00 0.0000E+00 0.9000E+01
       25  1    1    2    0    0 -.60502780E+03 0.83492891E+02 0.94477027E+03 0.11319212E+04 0.12500000E+03 0.0000E+00 0.9000E+01
        2  1    1    2  502    0 -.54349151E+02 -.60154232E+01 0.30878044E+03 0.31358488E+03 0.32000000E+00 0.0000E+00 0.9000E+01
       -2  1    1    2    0  503 0.57136744E+03 -.17215010E+03 0.11570299E+03 0.60785170E+03 0.32000000E+00 0.0000E+00 0.9000E+01
       21  1    1    2  503  501 0.88009513E+02 0.94672627E+02 0.41877232E+01 0.12933167E+03 0.75000000E+00 0.0000E+00 0.9000E+01
#aMCatNLO 2  0  0  5  2 0.11187176D+03 0.00000000D+00  -5  6  0 0.00000000D+00 0.00000000D+00 0.00000000D+00 0.00000000D+00 0.00000000D+00
  <mgrwgt>
 0.1561693772D-03    1    2    0
 0.848202777775057D+03 0.000000000000000D+00 0.000000000000000D+00 0.848202777775057D+03
 0.848202777775057D+03 -.000000000000000D+00 -.000000000000000D+00 -.848202777775057D+03
 0.713679122970773D+03 -.623825704138409D+03 0.856880404487273D+02 0.311788295393857D+03
 0.157286918531432D+03 -.583779288618229D+02 -.552273031794621D+01 0.145947564600278D+03
 0.825439514047910D+03 0.682203633000232D+03 -.801653101307811D+02 -.457735859994135D+03
 0.000000000000000D+00 0.000000000000000D+00 0.000000000000000D+00 -.000000000000000D+00
 0.848202777775057D+03 0.000000000000000D+00 0.000000000000000D+00 0.848202777775057D+03
 0.848202777775057D+03 -.000000000000000D+00 -.000000000000000D+00 -.848202777775057D+03
 0.691689641816448D+03 -.605197079861976D+03 0.834990027916535D+02 0.299289110486001D+03
 0.153240282212365D+03 -.542617888883089D+02 -.600641527879476D+01 0.143185772109748D+03
 0.688350422374723D+03 0.571361257023728D+03 -.172215254177095D+03 -.343095503008191D+03
 0.163125209146579D+03 0.880976117265576D+02 0.947226666642358D+02 -.993793795875576D+02
0.503073216955D-04 0.000000000000D+00 0.000000000000D+00 0.114275458372D-06 0.435910598451D-10  6 2 -2 25 2 -2 21 2 0.27354853D+00 0.62249847D-01 0.49300719D+06 0.49300719D+06 0.49300719D+06 0.10689430D+01  1  2  1  4  6  5       -2 0.156169377177D-03 0.100000000000D+01
  </mgrwgt>
  </event>
  <event>
  6     66 0.15870568E-05 0.11672644E+03 0.75467711E-02 0.93379626E-01
        2 -1    0    0  502    0 0.00000000E+00 0.00000000E+00 0.17250532E+04 0.17250532E+04 0.32000000E+00 0.0000E+00 0.9000E+01
       21 -1    0    0  503  501 0.00000000E+00 0.00000000E+00 -.11346391E+04 0.11346394E+04 0.75000000E+00 0.0000E+00 0.9000E+01
       25  1    1    2    0    0 0.17787900E+03 -.41495511E+03 0.40798954E+03 0.62121586E+03 0.12500000E+03 0.0000E+00 0.9000E+01
        2  1    1    2  502    0 0.83597467E+01 0.58274730E+02 0.99452964E+03 0.99627062E+03 0.32000000E+00 0.0000E+00 0.9000E+01
        2  1    1    2  503    0 0.13670314E+03 0.51705297E+02 -.78359189E+03 0.79710573E+03 0.32000000E+00 0.0000E+00 0.9000E+01
       -2  1    1    2    0  501 -.32294188E+03 0.30497509E+03 -.28513201E+02 0.44510040E+03 0.32000000E+00 0.0000E+00 0.9000E+01
#aMCatNLO 2  0  0  2  4 0.14615466D+03 0.00000000D+00  -5  6  0 0.00000000D+00 0.00000000D+00 0.00000000D+00 0.00000000D+00 0.00000000D+00
  <mgrwgt>
 0.8399493941D-03    1    2    0
 0.765671441120229D+03 0.000000000000000D+00 0.000000000000000D+00 0.765671441120229D+03
 0.765671441120229D+03 0.000000000000000D+00 0.000000000000000D+00 -.765671441120229D+03
 0.472590143841816D+03 0.219844483203314D+03 -.399155456173435D+03 -.773104575548214D+01
 0.452143027832884D+03 0.484176278257534D+02 0.734119356566420D+02 0.443508442576643D+03
 0.000000000000000D+00 0.000000000000000D+00 0.000000000000000D+00 -.000000000000000D+00
 0.606609710565759D+03 -.268262111029068D+03 0.325743520516793D+03 -.435777396821161D+03
 0.772175408940102D+03 0.000000000000000D+00 0.000000000000000D+00 0.772175408940102D+03
 0.253480383103118D+04 0.000000000000000D+00 0.000000000000000D+00 -.253480383103118D+04
 0.468589539676186D+03 0.177930115125765D+03 -.415008749012353D+03 -.773104575548214D+01
 0.447396714174064D+03 0.835764724273516D+01 0.582600287466064D+02 0.443508442576643D+03
 0.176867751142542D+04 0.136703135795325D+03 0.517052968507616D+02 -.176262842209108D+04
 0.622315474695621D+03 -.322990898163825D+03 0.305043423414985D+03 -.435777396821161D+03
0.373683028751D-03 0.000000000000D+00 0.000000000000D+00 0.188143076880D-05 0.135689783306D-09  6 2 21 25 2 2 -2 2 0.26539282D+00 0.17455988D+00 0.31237228D+06 0.31237228D+06 0.31237228D+06 0.10832557D+01  1  2  1  6  5  2       -2 0.839949394128D-03 0.100000000000D+01
  </mgrwgt>
  </event>
  <event>
  5     66 -.15870568E-05 0.50878692E+02 0.75467711E-02 0.93002109E-01
        2 -1    0    0  502    0 0.00000000E+00 0.00000000E+00 0.28751879E+04 0.28751879E+04 0.32000000E+00 0.0000E+00 0.9000E+01
       -2 -1    0    0    0  501 0.00000000E+00 0.00000000E+00 -.16551534E+04 0.16551535E+04 0.32000000E+00 0.0000E+00 0.9000E+01
       25  1    1    2    0    0 0.20888343E+03 -.45619873E+03 -.43384075E+03 0.67497582E+03 0.12500000E+03 0.0000E+00 0.9000E+01
        2  1    1    2  502    0 -.23782538E+03 0.41435393E+03 0.27333014E+04 0.27747408E+04 0.32000000E+00 0.0000E+00 0.9000E+01
       -2  1    1    2    0  501 0.28941944E+02 0.41844796E+02 -.10794262E+04 0.10806247E+04 0.32000000E+00 0.0000E+00 0.9000E+01
#aMCatNLO 1  0  0  5  2 0.10609576D+02 0.00000000D+00  -5  6  0 0.00000000D+00 0.00000000D+00 0.00000000D+00 0.00000000D+00 0.00000000D+00
  <mgrwgt>
 -.6314158027D-02    4    2    0
 0.218148508345224D+04 0.000000000000000D+00 0.000000000000000D+00 0.218148508345224D+04
 0.218148508345224D+04 -.000000000000000D+00 -.000000000000000D+00 -.218148508345224D+04
 0.822183698472552D+03 0.208883367894247D+03 -.456198866316365D+03 -.639227163864948D+03
 0.211686066692138D+04 -.237825343382699D+03 0.414353874201750D+03 0.206224369465340D+04
 0.142392580151055D+04 0.289419754884534D+02 0.418449921146169D+02 -.142301653078845D+04
 0.000000000000000D+00 0.000000000000000D+00 0.000000000000000D+00 0.000000000000000D+00
 0.218148508345224D+04 0.000000000000000D+00 0.000000000000000D+00 0.218148508345224D+04
 0.218148508345224D+04 -.000000000000000D+00 -.000000000000000D+00 -.218148508345224D+04
 0.823837677331096D+03 0.208927233857953D+03 -.456135443869403D+03 -.641383961748984D+03
 0.211148283457850D+04 -.237712659328104D+03 0.414516795470819D+03 0.205670325486868D+04
 0.205799263757342D+03 -.374115940050230D+02 -.413966047148642D+02 -.198090965758534D+03
 0.122185039123754D+04 0.661970194751750D+02 0.830152531134491D+02 -.121722832736116D+04
0.177021605462D+00 0.000000000000D+00 0.000000000000D+00 0.719508251019D-03 0.000000000000D+00  6 2 -2 25 2 -2 21 0 0.44233660D+00 0.25463899D+00 0.27338087D+06 0.27338087D+06 0.27338087D+06 0.10875501D+01  1  2  2  4  6  5       -2 0.268684976868D-02 0.100000000000D+01
0.736972818510D-01 0.000000000000D+00 -.679809575832D-03 0.719508251019D-03 0.000000000000D+00  6 2 -2 25 2 -2 21 2 0.44233660D+00 0.25463899D+00 0.27338087D+06 0.27338087D+06 0.27338087D+06 0.10875501D+01  1  2  3  4  6  5       -2 0.132302206107D-02 0.100000000000D+01
-.118296201826D+00 0.000000000000D+00 0.000000000000D+00 0.719508251019D-03 0.000000000000D+00  6 2 -2 25 2 -2 21 2 0.44233660D+00 0.25463899D+00 0.27338087D+06 0.27338087D+06 0.27338087D+06 0.10875501D+01  1  2 15  4  6  5       -2 -.212366699049D-02 0.100000000000D+01
-.456790911692D+00 0.000000000000D+00 0.000000000000D+00 0.719508251019D-03 0.000000000000D+00  6 2 -2 25 2 -2 21 2 0.44233660D+00 0.25463899D+00 0.27338087D+06 0.27338087D+06 0.27338087D+06 0.10875501D+01  1  2  5  4  6  5       -2 -.820036286664D-02 0.100000000000D+01
  </mgrwgt>
  </event>
  <event>
  5     66 0.15870568E-05 0.18115265E+03 0.75467711E-02 0.91718849E-01
        2 -1    0    0  502    0 0.00000000E+00 0.00000000E+00 0.10071194E+04 0.10071194E+04 0.32000000E+00 0.0000E+00 0.9000E+01
       -2 -1    0    0    0  501 0.00000000E+00 0.00000000E+00 -.28834522E+04 0.28834522E+04 0.32000000E+00 0.0000E+00 0.9000E+01
       25  1    1    2    0    0 -.22292839E+03 0.50204824E+03 -.73873778E+02 0.56818293E+03 0.12500000E+03 0.0000E+00 0.9000E+01
        2  1    1    2  502    0 0.50069488E+02 -.55618502E+03 0.65359070E+03 0.85966833E+03 0.32000000E+00 0.0000E+00 0.9000E+01
       -2  1    1    2    0  501 0.17285890E+03 0.54136781E+02 -.24560498E+04 0.24627204E+04 0.32000000E+00 0.0000E+00 0.9000E+01
#aMCatNLO 1  0  0  2  5 0.87532995D+01 0.00000000D+00  -5  6  0 0.00000000D+00 0.00000000D+00 0.00000000D+00 0.00000000D+00 0.00000000D+00
  <mgrwgt>
 0.8093210114D-03    7    4    0
 0.170410700112737D+04 0.000000000000000D+00 0.000000000000000D+00 0.170410700112737D+04
 0.170410700112737D+04 0.000000000000000D+00 0.000000000000000D+00 -.170410700112737D+04
 0.607943477047167D+03 -.222940420417638D+03 0.502020482271746D+03 0.228567879650334D+03
 0.134109985748201D+04 0.500673021723496D+02 -.556160745030811D+03 0.121931428215953D+04
 0.145917066772557D+04 0.172873118245288D+03 0.541402627590653D+02 -.144788216180987D+04
 0.000000000000000D+00 -.000000000000000D+00 0.000000000000000D+00 -.000000000000000D+00
 0.181039796504744D+04 0.000000000000000D+00 0.000000000000000D+00 0.181039796504744D+04
 0.310778933195078D+04 0.000000000000000D+00 0.000000000000000D+00 -.310778933195078D+04
 0.516206099739251D+03 -.197294915790307D+03 0.399593766221966D+03 0.228567879650334D+03
 0.146952963900808D+04 0.114186893769763D+03 -.812250819966471D+03 0.121931428215953D+04
 0.148315051487607D+04 0.239997025118262D+03 -.213948879932351D+03 -.144788216180987D+04
 0.144930104337483D+04 -.156889003097718D+03 0.626605933676856D+03 -.129739136690335D+04
 0.170410700112737D+04 0.000000000000000D+00 0.000000000000000D+00 0.170410700112737D+04
 0.170410700112737D+04 0.000000000000000D+00 0.000000000000000D+00 -.170410700112737D+04
 0.607943477047167D+03 -.222940420417638D+03 0.502020482271746D+03 0.228567879650334D+03
 0.134109985748201D+04 0.500673021723496D+02 -.556160745030811D+03 0.121931428215953D+04
 0.000000000000000D+00 -.000000000000000D+00 0.000000000000000D+00 -.000000000000000D+00
 0.145917066772557D+04 0.172873118245288D+03 0.541402627590653D+02 -.144788216180987D+04
 0.181039796504744D+04 0.000000000000000D+00 0.000000000000000D+00 0.181039796504744D+04
 0.310778933195078D+04 0.000000000000000D+00 0.000000000000000D+00 -.310778933195078D+04
 0.516206099739251D+03 -.197294915790307D+03 0.399593766221966D+03 0.228567879650334D+03
 0.146952963900808D+04 0.114186893769763D+03 -.812250819966471D+03 0.121931428215953D+04
 0.144930104337483D+04 -.156889003097718D+03 0.626605933676856D+03 -.129739136690335D+04
 0.148315051487607D+04 0.239997025118262D+03 -.213948879932351D+03 -.144788216180987D+04
0.447900348669D-01 0.000000000000D+00 0.000000000000D+00 0.643692385649D-05 0.000000000000D+00  6 2 -2 25 2 -2 21 0 0.15494144D+00 0.44360804D+00 0.42438873D+06 0.42438873D+06 0.42438873D+06 0.10735795D+01  1  2  2  2  6  2       -2 0.361470432023D-03 0.100000000000D+01
0.811707565350D-02 0.000000000000D+00 -.172005527376D-03 0.643692385649D-05 0.000000000000D+00  6 2 -2 25 2 -2 21 2 0.15494144D+00 0.44360804D+00 0.42438873D+06 0.42438873D+06 0.42438873D+06 0.10735795D+01  1  2  3  2  6  2       -2 0.755021691871D-04 0.100000000000D+01
-.251106061479D-01 0.000000000000D+00 0.000000000000D+00 0.643692385649D-05 0.000000000000D+00  6 2 -2 25 2 -2 21 2 0.15494144D+00 0.44360804D+00 0.42438873D+06 0.42438873D+06 0.42438873D+06 0.10735795D+01  1  2 15  2  6  2       -2 -.233569984401D-03 0.100000000000D+01
-.176333361736D-02 0.000000000000D+00 0.000000000000D+00 0.643692385649D-05 0.000000000000D+00  6 2 -2 25 2 -2 21 2 0.15494144D+00 0.44360804D+00 0.42438873D+06 0.42438873D+06 0.42438873D+06 0.10735795D+01  1  2  4  2  6  2       -2 -.164019061537D-04 0.100000000000D+01
-.686428457877D-01 0.000000000000D+00 -.173123689879D-01 0.643692385649D-05 0.000000000000D+00  6 2 -2 25 2 -2 21 2 0.15494144D+00 0.81258333D+00 0.42438873D+06 0.42438873D+06 0.42438873D+06 0.10735795D+01  1  2  5  2  6  2       -2 -.181495882345D-04 0.100000000000D+01
0.688667191288D-01 0.000000000000D+00 0.145623871835D-01 0.643692385649D-05 0.000000000000D+00  6 2 -2 25 2 -2 21 2 0.15494144D+00 0.44360804D+00 0.42438873D+06 0.42438873D+06 0.42438873D+06 0.10735795D+01  1  2  6  2  6  2       -2 0.640573884116D-03 0.100000000000D+01
-.359628072013D-02 0.000000000000D+00 -.114511722875D-02 0.643692385649D-05 0.000000000000D+00  6 2 21 25 2 2 -2 2 0.15494144D+00 0.81258333D+00 0.42438873D+06 0.42438873D+06 0.42438873D+06 0.10735795D+01  3  4  5  6  5  2       -2 -.103995133748D-06 0.100000000000D+01
  </mgrwgt>
  </event>
  <event>
  5     66 0.15870568E-05 0.12202382E+02 0.75467711E-02 0.89430101E-01
        2 -1    0    0  502    0 0.00000000E+00 0.00000000E+00 0.20626291E+04 0.20626291E+04 0.32000000E+00 0.0000E+00 0.9000E+01
       -2 -1    0    0    0  501 0.00000000E+00 0.00000000E+00 -.11711949E+04 0.11711949E+04 0.32000000E+00 0.0000E+00 0.9000E+01
       25  1    1    2    0    0 -.49051274E+03 0.59965067E+03 0.13486621E+04 0.15603520E+04 0.12500000E+03 0.0000E+00 0.9000E+01
        2  1    1    2  502    0 0.43884831E+01 -.11394901E+02 0.47137309E+03 0.47153133E+03 0.32000000E+00 0.0000E+00 0.9000E+01
       -2  1    1    2    0  501 0.48612426E+03 -.58825577E+03 -.92860098E+03 0.12019407E+04 0.32000000E+00 0.0000E+00 0.9000E+01
#aMCatNLO 1  0  0  4  1 0.11635316D+03 0.00000000D+00  -5  6  0 0.00000000D+00 0.00000000D+00 0.00000000D+00 0.00000000D+00 0.00000000D+00
  <mgrwgt>
 0.2993020108D-03    6    2    0
 0.155426532646575D+04 0.000000000000000D+00 0.000000000000000D+00 0.155426532646575D+04
 0.155426532646575D+04 -.000000000000000D+00 -.000000000000000D+00 -.155426532646575D+04
 0.123670692890754D+04 -.490559671224401D+03 0.599703697430749D+03 0.955785390275458D+03
 0.355117388305552D+03 0.438547380323189D+01 -.113870870730254D+02 0.354907680030270D+03
 0.151670633571841D+04 0.486174197421169D+03 -.588316610357723D+03 -.131069307030573D+04
 0.000000000000000D+00 0.000000000000000D+00 0.000000000000000D+00 0.000000000000000D+00
 0.155426532646575D+04 0.000000000000000D+00 0.000000000000000D+00 0.155426532646575D+04
 0.155426532646575D+04 -.000000000000000D+00 -.000000000000000D+00 -.155426532646575D+04
 0.123970759333243D+04 -.490510436245385D+03 0.599575856513609D+03 0.959769879286919D+03
 0.250773275227849D+03 -.337829568335392D+02 -.173533099228455D+02 0.247880636659678D+03
 0.151257651607798D+04 0.486234424283960D+03 -.588472992213253D+03 -.130581902998365D+04
 0.105473268293241D+03 0.380589687949645D+02 0.625044562248994D+01 0.981685140370486D+02
0.471661044589D-03 0.000000000000D+00 0.000000000000D+00 0.166763259077D-04 0.000000000000D+00  6 2 -2 25 2 -2 21 0 0.31732756D+00 0.18018383D+00 0.60856534D+06 0.60856534D+06 0.60856534D+06 0.10625310D+01  1  2  2  3  6  4        2 0.621087739153D-04 0.100000000000D+01
0.373047187838D-03 0.000000000000D+00 -.181130260243D-05 0.166763259077D-04 0.000000000000D+00  6 2 -2 25 2 -2 21 2 0.31732756D+00 0.18018383D+00 0.60856534D+06 0.60856534D+06 0.60856534D+06 0.10625310D+01  1  2  3  3  6  4        2 0.554587304009D-04 0.100000000000D+01
-.290776412455D-03 0.000000000000D+00 0.000000000000D+00 0.166763259077D-04 0.000000000000D+00  6 2 -2 25 2 -2 21 2 0.31732756D+00 0.18018383D+00 0.60856534D+06 0.60856534D+06 0.60856534D+06 0.10625310D+01  1  2 15  3  6  4        2 -.432280183070D-04 0.100000000000D+01
-.309757504390D-04 0.000000000000D+00 0.000000000000D+00 0.166763259077D-04 0.000000000000D+00  6 2 -2 25 2 -2 21 2 0.31732756D+00 0.18018383D+00 0.60856534D+06 0.60856534D+06 0.60856534D+06 0.10625310D+01  1  2  4  3  6  4        2 -.460498255600D-05 0.100000000000D+01
-.237620751223D-02 0.000000000000D+00 0.000000000000D+00 0.166763259077D-04 0.000000000000D+00  6 2 -2 25 2 -2 21 2 0.31732756D+00 0.18018383D+00 0.60856534D+06 0.60856534D+06 0.60856534D+06 0.10625310D+01  1  2  5  3  6  4        2 -.353256789204D-03 0.100000000000D+01
0.392041006482D-02 0.000000000000D+00 -.000000000000D+00 0.166763259077D-04 0.000000000000D+00  6 2 -2 25 2 -2 21 2 0.31732756D+00 0.18018383D+00 0.60856534D+06 0.60856534D+06 0.60856534D+06 0.10625310D+01  1  2  6  3  6  4        2 0.582824296588D-03 0.100000000000D+01
  </mgrwgt>
  </event>
  <event>
  5     66 0.15870568E-05 0.81174383E+02 0.75467711E-02 0.92678548E-01
        2 -1    0    0  502    0 0.00000000E+00 0.00000000E+00 0.25277534E+03 0.25277554E+03 0.32000000E+00 0.0000E+00 0.9000E+01
       -2 -1    0    0    0  501 0.00000000E+00 0.00000000E+00 -.15281395E+04 0.15281395E+04 0.32000000E+00 0.0000E+00 0.9000E+01
       25  1    1    2    0    0 -.30034649E+03 -.39433755E+03 -.42633821E+03 0.66565711E+03 0.12500000E+03 0.0000E+00 0.9000E+01
        2  1    1    2  502    0 0.67405598E+02 -.45408176E+02 0.44384853E+02 0.92604183E+02 0.32000000E+00 0.0000E+00 0.9000E+01
       -2  1    1    2    0  501 0.23294089E+03 0.43974573E+03 -.89341077E+03 0.10226537E+04 0.32000000E+00 0.0000E+00 0.9000E+01
#aMCatNLO 1  0  0  2  1 0.10541054D+03 0.00000000D+00  -5  6  0 0.00000000D+00 0.00000000D+00 0.00000000D+00 0.00000000D+00 0.00000000D+00
  <mgrwgt>
 0.6560191364D-03    7    4    0
 0.621511203313045D+03 0.000000000000000D+00 0.000000000000000D+00 0.621511203313045D+03
 0.621511203313045D+03 0.000000000000000D+00 0.000000000000000D+00 -.621511203313045D+03
 0.516410145427491D+03 -.300357773919482D+03 -.394480968535269D+03 0.722800899975380D+02
 0.177998334925621D+03 0.673232136369187D+02 -.453526767079815D+02 0.158411258619180D+03
 0.548613926272978D+03 0.233034560282563D+03 0.439833645243250D+03 -.230691348616718D+03
 0.000000000000000D+00 0.000000000000000D+00 -.000000000000000D+00 -.000000000000000D+00
 0.656725873828066D+03 0.000000000000000D+00 0.000000000000000D+00 0.656725873828066D+03
 0.707960113091649D+03 0.000000000000000D+00 0.000000000000000D+00 -.707960113091649D+03
 0.529360388332315D+03 -.341401912236679D+03 -.377912349158408D+03 0.722800899975380D+02
 0.171903494037314D+03 0.535903548483255D+02 -.398090224968503D+02 0.158411258619180D+03
 0.546220019286695D+03 0.190064793545728D+03 0.457179598623317D+03 -.230691348616718D+03
 0.117202085263391D+03 0.977467638426259D+02 -.394582269680595D+02 -.512342392635832D+02
 0.621511203313045D+03 0.000000000000000D+00 0.000000000000000D+00 0.621511203313045D+03
 0.621511203313045D+03 0.000000000000000D+00 0.000000000000000D+00 -.621511203313045D+03
 0.516410145427491D+03 -.300357773919482D+03 -.394480968535269D+03 0.722800899975380D+02
 0.177998334925621D+03 0.673232136369187D+02 -.453526767079815D+02 0.158411258619180D+03
 0.000000000000000D+00 0.000000000000000D+00 -.000000000000000D+00 -.000000000000000D+00
 0.548613926272978D+03 0.233034560282563D+03 0.439833645243250D+03 -.230691348616718D+03
 0.656725873828066D+03 0.000000000000000D+00 0.000000000000000D+00 0.656725873828066D+03
 0.707960113091649D+03 0.000000000000000D+00 0.000000000000000D+00 -.707960113091649D+03
 0.529360388332315D+03 -.341401912236679D+03 -.377912349158408D+03 0.722800899975380D+02
 0.171903494037314D+03 0.535903548483255D+02 -.398090224968503D+02 0.158411258619180D+03
 0.117202085263391D+03 0.977467638426259D+02 -.394582269680595D+02 -.512342392635832D+02
 0.546220019286695D+03 0.190064793545728D+03 0.457179598623317D+03 -.230691348616718D+03
0.192492777021D-03 0.000000000000D+00 0.000000000000D+00 0.701305792728D-07 0.000000000000D+00  6 2 -2 25 2 -2 21 0 0.38888531D-01 0.23509840D+00 0.29716389D+06 0.29716389D+06 0.29716389D+06 0.10848572D+01  1  2  2  2  6  2       -2 0.228801636613D-03 0.100000000000D+01
0.271201044195D-04 0.000000000000D+00 -.739222948272D-06 0.701305792728D-07 0.000000000000D+00  6 2 -2 25 2 -2 21 2 0.38888531D-01 0.23509840D+00 0.29716389D+06 0.29716389D+06 0.29716389D+06 0.10848572D+01  1  2  3  2  6  2       -2 0.379385909756D-04 0.100000000000D+01
-.113641623212D-03 0.000000000000D+00 0.000000000000D+00 0.701305792728D-07 0.000000000000D+00  6 2 -2 25 2 -2 21 2 0.38888531D-01 0.23509840D+00 0.29716389D+06 0.29716389D+06 0.29716389D+06 0.10848572D+01  1  2 15  2  6  2       -2 -.158974427021D-03 0.100000000000D+01
-.701698440642D-04 0.000000000000D+00 0.000000000000D+00 0.701305792728D-07 0.000000000000D+00  6 2 -2 25 2 -2 21 2 0.38888531D-01 0.23509840D+00 0.29716389D+06 0.29716389D+06 0.29716389D+06 0.10848572D+01  1  2  4  2  6  2       -2 -.981613113135D-04 0.100000000000D+01
-.120345725551D-02 0.000000000000D+00 -.272349060963D-03 0.701305792728D-07 0.000000000000D+00  6 2 -2 25 2 -2 21 2 0.38888531D-01 0.27503877D+00 0.29716389D+06 0.29716389D+06 0.29716389D+06 0.10848572D+01  1  2  5  2  6  2       -2 -.930898217590D-03 0.100000000000D+01
0.123428426388D-02 0.000000000000D+00 0.269030481772D-03 0.701305792728D-07 0.000000000000D+00  6 2 -2 25 2 -2 21 2 0.38888531D-01 0.23509840D+00 0.29716389D+06 0.29716389D+06 0.29716389D+06 0.10848572D+01  1  2  6  2  6  2       -2 0.172665285910D-02 0.100000000000D+01
-.264177969201D-04 0.000000000000D+00 -.644219422600D-05 0.701305792728D-07 0.000000000000D+00  6 2 21 25 2 2 -2 2 0.38888531D-01 0.27503877D+00 0.29716389D+06 0.29716389D+06 0.29716389D+06 0.10848572D+01  3  4  5  6  5  2       -2 -.149339994364D-03 0.100000000000D+01
  </mgrwgt>
  </event>
  <event>
  5     66 0.15870568E-05 0.55365830E+02 0.75467711E-02 0.90621280E-01
        2 -1    0    0  502    0 0.00000000E+00 0.00000000E+00 0.21788542E+04 0.21788542E+04 0.32000000E+00 0.0000E+00 0.9000E+01
       -2 -1    0    0    0  501 0.00000000E+00 0.00000000E+00 -.44864743E+03 0.44864754E+03 0.32000000E+00 0.0000E+00 0.9000E+01
       25  1    1    2    0    0 -.43421391E+03 -.22030832E+03 0.51315129E+03 0.71835000E+03 0.12500000E+03 0.0000E+00 0.9000E+01
        2  1    1    2  502    0 -.16272169E+02 0.52929806E+02 0.13954387E+04 0.13965370E+04 0.32000000E+00 0.0000E+00 0.9000E+01
       -2  1    1    2    0  501 0.45048608E+03 0.16737852E+03 -.17838317E+03 0.51261480E+03 0.32000000E+00 0.0000E+00 0.9000E+01
#aMCatNLO 1  0  0  1  2 0.57958141D+02 0.00000000D+00  -5  6  0 0.00000000D+00 0.00000000D+00 0.00000000D+00 0.00000000D+00 0.00000000D+00
  <mgrwgt>
 0.1066137519D-02    7    2    0
 0.988704965801353D+03 0.000000000000000D+00 0.000000000000000D+00 0.988704965801353D+03
 0.988704965801353D+03 0.000000000000000D+00 0.000000000000000D+00 -.988704965801353D+03
 0.505588644440946D+03 -.434281009251450D+03 -.220327690597788D+03 0.533909275722098D+02
 0.634570837951183D+03 -.162695880377622D+02 0.529214102500525D+02 0.632150910163304D+03
 0.837250449210578D+03 0.450550597289212D+03 0.167406280347735D+03 -.685541837735513D+03
 0.000000000000000D+00 0.000000000000000D+00 0.000000000000000D+00 0.000000000000000D+00
 0.152709099629530D+04 0.000000000000000D+00 0.000000000000000D+00 0.152709099629530D+04
 0.107519260823705D+04 0.000000000000000D+00 0.000000000000000D+00 -.107519260823705D+04
 0.605993119460056D+03 -.535679441780524D+03 -.248595264113408D+03 0.533909275722098D+02
 0.646334330628712D+03 -.133113693015323D+03 0.203479350499007D+02 0.632150910163304D+03
 0.760869309987696D+03 0.304770193328862D+03 0.126766024050830D+03 -.685541837735513D+03
 0.589086844455889D+03 0.364022941466985D+03 0.101481305012677D+03 0.451898388058250D+03
0.353819741886D-03 0.000000000000D+00 0.000000000000D+00 0.134815074829D-04 0.000000000000D+00  6 2 -2 25 2 -2 21 0 0.33520835D+00 0.69022691D-01 0.26976266D+06 0.26976266D+06 0.26976266D+06 0.10879821D+01  1  2  2  1  6  1        2 0.480742080456D-03 0.100000000000D+01
0.135339496909D-03 0.000000000000D+00 -.135876097172D-05 0.134815074829D-04 0.000000000000D+00  6 2 -2 25 2 -2 21 2 0.33520835D+00 0.69022691D-01 0.26976266D+06 0.26976266D+06 0.26976266D+06 0.10879821D+01  1  2  3  1  6  1        2 0.217669761228D-03 0.100000000000D+01
-.234909390403D-03 0.000000000000D+00 0.000000000000D+00 0.134815074829D-04 0.000000000000D+00  6 2 -2 25 2 -2 21 2 0.33520835D+00 0.69022691D-01 0.26976266D+06 0.26976266D+06 0.26976266D+06 0.10879821D+01  1  2 15  1  6  1        2 -.377810410760D-03 0.100000000000D+01
-.723174565671D-05 0.000000000000D+00 0.000000000000D+00 0.134815074829D-04 0.000000000000D+00  6 2 -2 25 2 -2 21 2 0.33520835D+00 0.69022691D-01 0.26976266D+06 0.26976266D+06 0.26976266D+06 0.10879821D+01  1  2  4  1  6  1        2 -.116309901123D-04 0.100000000000D+01
-.511202223482D-03 0.000000000000D+00 -.192175332778D-03 0.134815074829D-04 0.000000000000D+00  6 2 -2 25 2 -2 21 2 0.52758283D+00 0.69022691D-01 0.26976266D+06 0.26976266D+06 0.26976266D+06 0.10879821D+01  1  2  5  1  6  1        2 -.140340559930D-03 0.100000000000D+01
0.558165610151D-03 0.000000000000D+00 0.173972459250D-03 0.134815074829D-04 0.000000000000D+00  6 2 -2 25 2 -2 21 2 0.33520835D+00 0.69022691D-01 0.26976266D+06 0.26976266D+06 0.26976266D+06 0.10879821D+01  1  2  6  1  6  1        2 0.897711147610D-03 0.100000000000D+01
-.190013158439D-04 0.000000000000D+00 -.100462499865D-04 0.134815074829D-04 0.000000000000D+00  6 21 -2 25 2 -2 -2 2 0.52758283D+00 0.69022691D-01 0.26976266D+06 0.26976266D+06 0.26976266D+06 0.10879821D+01  1  2  5  5  6  1        2 -.203509024148D-06 0.100000000000D+01
  </mgrwgt>
  </event>
  <event>
  5     66 0.15870568E-05 0.20301838E+03 0.75467711E-02 0.91954666E-01
        2 -1    0    0  502    0 0.00000000E+00 0.00000000E+00 0.57397146E+03 0.57397155E+03 0.32000000E+00 0.0000E+00 0.9000E+01
       -2 -1    0    0    0  501 -.00000000E+00 -.00000000E+00 -.17515690E+04 0.17515690E+04 0.32000000E+00 0.0000E+00 0.9000E+01
       25  1    1    2    0    0 0.54088191E+03 0.26158116E+03 -.36580006E+03 0.71443168E+03 0.12500000E+03 0.0000E+00 0.9000E+01
        2  1    1    2  502    0 -.43390991E+03 -.89066697E+02 0.26444603E+03 0.51588999E+03 0.32000000E+00 0.0000E+00 0.9000E+01
       -2  1    1    2    0  501 -.10697201E+03 -.17251446E+03 -.10762435E+04 0.10952189E+04 0.32000000E+00 0.0000E+00 0.9000E+01
#aMCatNLO 1  0  0  5  2 0.40409042D+02 0.00000000D+00  -5  6  0 0.00000000D+00 0.00000000D+00 0.00000000D+00 0.00000000D+00 0.00000000D+00
  <mgrwgt>
 0.1496148577D-03    8    2    0
 0.100267179400483D+04 0.000000000000000D+00 0.000000000000000D+00 0.100267179400483D+04
 0.100267179400483D+04 -.000000000000000D+00 -.000000000000000D+00 -.100267179400483D+04
 0.613688052985136D+03 0.540864229655566D+03 0.261597347983908D+03 -.455400741819318D+01
 0.753490154315101D+03 -.433873357046959D+03 -.890591952493749D+02 0.609565240508455D+03
 0.638165380709417D+03 -.106990872608607D+03 -.172538152734534D+03 -.605011233090262D+03
 0.000000000000000D+00 0.000000000000000D+00 0.000000000000000D+00 -.000000000000000D+00
 0.100267179400483D+04 0.000000000000000D+00 0.000000000000000D+00 0.100267179400483D+04
 0.100267179400483D+04 -.000000000000000D+00 -.000000000000000D+00 -.100267179400483D+04
 0.613277482055969D+03 0.540594023070756D+03 0.261161601047156D+03 -.608196971141147D+01
 0.752228902674879D+03 -.434204951694446D+03 -.895939392564029D+02 0.607690141430644D+03
 0.370971137572003D+03 -.298354812044953D+02 -.124352665896137D+03 -.348232456065321D+03
 0.268866065706803D+03 -.765535901718148D+02 -.472149958946158D+02 -.253375715653912D+03
0.695886627326D-04 0.000000000000D+00 0.000000000000D+00 0.396392864711D-06 0.000000000000D+00  6 2 -2 25 2 -2 21 0 0.88303310D-01 0.26947216D+00 0.39665369D+06 0.39665369D+06 0.39665369D+06 0.10756907D+01  1  2  2  4  6  5       -2 0.194673833206D-04 0.100000000000D+01
0.756937832797D-05 0.000000000000D+00 -.267238788009D-06 0.396392864711D-06 0.000000000000D+00  6 2 -2 25 2 -2 21 2 0.88303310D-01 0.26947216D+00 0.39665369D+06 0.39665369D+06 0.39665369D+06 0.10756907D+01  1  2  3  4  6  5       -2 0.245021480649D-05 0.100000000000D+01
-.461520433035D-04 0.000000000000D+00 0.000000000000D+00 0.396392864711D-06 0.000000000000D+00  6 2 -2 25 2 -2 21 2 0.88303310D-01 0.26947216D+00 0.39665369D+06 0.39665369D+06 0.39665369D+06 0.10756907D+01  1  2 15  4  6  5       -2 -.149394593522D-04 0.100000000000D+01
0.879115642427D-08 0.000000000000D+00 0.000000000000D+00 0.396392864711D-06 0.000000000000D+00  6 2 -2 25 2 -2 21 2 0.88303310D-01 0.26947216D+00 0.40603907D+06 0.40603907D+06 0.40603907D+06 0.10749588D+01  1  2 12  4  6  5       -2 0.283761581788D-08 0.100000000000D+01
0.812311943531D-03 0.000000000000D+00 0.000000000000D+00 0.396392864711D-06 0.000000000000D+00  6 2 -2 25 2 -2 21 2 0.88303310D-01 0.26947216D+00 0.40603907D+06 0.40603907D+06 0.40603907D+06 0.10749588D+01  1  2 12  4  6  5       -2 0.262198635626D-03 0.100000000000D+01
-.827728715663D-03 0.000000000000D+00 0.000000000000D+00 0.396392864711D-06 0.000000000000D+00  6 2 -2 25 2 -2 21 2 0.88303310D-01 0.26947216D+00 0.39665369D+06 0.39665369D+06 0.39665369D+06 0.10756907D+01  1  2  4  4  6  5       -2 -.267936555289D-03 0.100000000000D+01
-.919921203915D-03 0.000000000000D+00 0.000000000000D+00 0.396392864711D-06 0.000000000000D+00  6 2 -2 25 2 -2 21 2 0.88303310D-01 0.26947216D+00 0.39665369D+06 0.39665369D+06 0.39665369D+06 0.10756907D+01  1  2  5  4  6  5       -2 -.297779349502D-03 0.100000000000D+01
0.137828195339D-02 0.000000000000D+00 -.000000000000D+00 0.396392864711D-06 0.000000000000D+00  6 2 -2 25 2 -2 21 2 0.88303310D-01 0.26947216D+00 0.39665369D+06 0.39665369D+06 0.39665369D+06 0.10756907D+01  1  2  6  4  6  5       -2 0.446151150515D-03 0.100000000000D+01
  </mgrwgt>
  </event>
  <event>
  5     66 -.15870568E-05 0.31817119E+02 0.75467711E-02 0.90023869E-01
        2 -1    0    0  502    0 0.00000000E+00 0.00000000E+00 0.34457383E+04 0.34457384E+04 0.32000000E+00 0.0000E+00 0.9000E+01
       -2 -1    0    0    0  501 0.00000000E+00 0.00000000E+00 -.21633611E+03 0.21633635E+03 0.32000000E+00 0.0000E+00 0.9000E+01
       25  1    1    2    0    0 0.53498795E+03 -.41456069E+03 0.65248032E+03 0.94838191E+03 0.12500000E+03 0.0000E+00 0.9000E+01
        2  1    1    2  502    0 0.30865606E+02 -.78736334E+01 0.81374383E+03 0.81436712E+03 0.32000000E+00 0.0000E+00 0.9000E+01
       -2  1    1    2    0  501 -.56585356E+03 0.42243432E+03 0.17631781E+04 0.18993257E+04 0.32000000E+00 0.0000E+00 0.9000E+01
#aMCatNLO 1  0  0  2  4 0.11418548D+03 0.00000000D+00  -5  6  0 0.00000000D+00 0.00000000D+00 0.00000000D+00 0.00000000D+00 0.00000000D+00
  <mgrwgt>
 -.1590793688D-03    7    4    0
 0.863387573443995D+03 0.000000000000000D+00 0.000000000000000D+00 0.863387573443995D+03
 0.863387573443995D+03 0.000000000000000D+00 0.000000000000000D+00 -.863387573443995D+03
 0.791117991388576D+03 0.535098719437373D+03 -.414639943192023D+03 -.389853503594485D+03
 0.204980912690862D+03 0.308298325110619D+02 -.786450782118596D+01 0.202496532097834D+03
 0.730676242808552D+03 -.565928551948435D+03 0.422504451013209D+03 0.187356971496651D+03
 0.000000000000000D+00 0.000000000000000D+00 -.000000000000000D+00 -.000000000000000D+00
 0.871724552722314D+03 0.000000000000000D+00 0.000000000000000D+00 0.871724552722314D+03
 0.137052739782720D+04 0.000000000000000D+00 0.000000000000000D+00 -.137052739782720D+04
 0.750672646992661D+03 0.507634743531599D+03 -.371760185923239D+03 -.389853503594485D+03
 0.203891111321435D+03 0.235465794308586D+02 0.350690195858224D+01 0.202496532097834D+03
 0.775982609917736D+03 -.592766724005920D+03 0.464407134998628D+03 0.187356971496651D+03
 0.511705582317676D+03 0.615854010434623D+02 -.961538510339708D+02 -.498802845104882D+03
 0.863387573443995D+03 0.000000000000000D+00 0.000000000000000D+00 0.863387573443995D+03
 0.863387573443995D+03 0.000000000000000D+00 0.000000000000000D+00 -.863387573443995D+03
 0.791117991388576D+03 0.535098719437373D+03 -.414639943192023D+03 -.389853503594485D+03
 0.204980912690862D+03 0.308298325110619D+02 -.786450782118596D+01 0.202496532097834D+03
 0.000000000000000D+00 0.000000000000000D+00 -.000000000000000D+00 -.000000000000000D+00
 0.730676242808552D+03 -.565928551948435D+03 0.422504451013209D+03 0.187356971496651D+03
 0.871724552722314D+03 0.000000000000000D+00 0.000000000000000D+00 0.871724552722314D+03
 0.137052739782720D+04 0.000000000000000D+00 0.000000000000000D+00 -.137052739782720D+04
 0.750672646992661D+03 0.507634743531599D+03 -.371760185923239D+03 -.389853503594485D+03
 0.203891111321435D+03 0.235465794308586D+02 0.350690195858224D+01 0.202496532097834D+03
 0.511705582317676D+03 0.615854010434623D+02 -.961538510339708D+02 -.498802845104882D+03
 0.775982609917736D+03 -.592766724005920D+03 0.464407134998628D+03 0.187356971496651D+03
0.196635155337D-04 0.000000000000D+00 0.000000000000D+00 0.507703249444D-07 0.000000000000D+00  6 2 -2 25 2 -2 21 0 0.53011361D+00 0.33282498D-01 0.50869358D+06 0.50869358D+06 0.50869358D+06 0.10679817D+01  1  2  2  2  6  2       -2 0.177824404195D-04 0.100000000000D+01
0.763626546432D-05 0.000000000000D+00 -.755130771720D-07 0.507703249444D-07 0.000000000000D+00  6 2 -2 25 2 -2 21 2 0.53011361D+00 0.33282498D-01 0.50869358D+06 0.50869358D+06 0.50869358D+06 0.10679817D+01  1  2  3  2  6  2       -2 0.787660097105D-05 0.100000000000D+01
-.143992049239D-04 0.000000000000D+00 0.000000000000D+00 0.507703249444D-07 0.000000000000D+00  6 2 -2 25 2 -2 21 2 0.53011361D+00 0.33282498D-01 0.50869358D+06 0.50869358D+06 0.50869358D+06 0.10679817D+01  1  2 15  2  6  2       -2 -.148523898253D-04 0.100000000000D+01
-.279010750532D-03 0.000000000000D+00 0.000000000000D+00 0.507703249444D-07 0.000000000000D+00  6 2 -2 25 2 -2 21 2 0.53011361D+00 0.33282498D-01 0.50869358D+06 0.50869358D+06 0.50869358D+06 0.10679817D+01  1  2  4  2  6  2       -2 -.287792031176D-03 0.100000000000D+01
-.386852333164D-03 0.000000000000D+00 -.150297456809D-04 0.507703249444D-07 0.000000000000D+00  6 2 -2 25 2 -2 21 2 0.53011361D+00 0.53061915D-01 0.50869358D+06 0.50869358D+06 0.50869358D+06 0.10679817D+01  1  2  5  2  6  2       -2 -.163240203146D-03 0.100000000000D+01
0.355936468518D-03 0.000000000000D+00 0.135309997668D-04 0.507703249444D-07 0.000000000000D+00  6 2 -2 25 2 -2 21 2 0.53011361D+00 0.33282498D-01 0.50869358D+06 0.50869358D+06 0.50869358D+06 0.10679817D+01  1  2  6  2  6  2       -2 0.367138825472D-03 0.100000000000D+01
-.200356226224D-04 0.000000000000D+00 -.802694028899D-06 0.507703249444D-07 0.000000000000D+00  6 2 21 25 2 2 -2 2 0.53011361D+00 0.53061915D-01 0.50869358D+06 0.50869358D+06 0.50869358D+06 0.10679817D+01  3  4  5  6  5  2       -2 -.859926114892D-04 0.100000000000D+01
  </mgrwgt>
  </event>
  <event>
  5     66 0.15870568E-05 0.10101678E+02 0.75467711E-02 0.85121391E-01
        2 -1    0    0  502    0 0.00000000E+00 0.00000000E+00 0.24104833E+04 0.24104834E+04 0.32000000E+00 0.0000E+00 0.9000E+01
       -2 -1    0    0    0  501 0.00000000E+00 0.00000000E+00 -.87306370E+03 0.87306375E+03 0.32000000E+00 0.0000E+00 0.9000E+01
       25  1    1    2    0    0 0.26440278E+03 -.64015474E+03 0.16252541E+04 0.17710965E+04 0.12500000E+03 0.0000E+00 0.9000E+01
        2  1    1    2  502    0 0.44022387E+01 -.91000921E+01 0.55797211E+03 0.55806377E+03 0.32000000E+00 0.0000E+00 0.9000E+01
       -2  1    1    2    0  501 -.26880502E+03 0.64925484E+03 -.64580658E+03 0.95438683E+03 0.32000000E+00 0.0000E+00 0.9000E+01
#aMCatNLO 1  0  0  1  2 0.34119268D+02 0.00000000D+00  -5  6  0 0.00000000D+00 0.00000000D+00 0.00000000D+00 0.00000000D+00 0.00000000D+00
  <mgrwgt>
 0.1079549202D-02    7    2    0
 0.145069142756731D+04 0.000000000000000D+00 0.000000000000000D+00 0.145069142756731D+04
 0.145069142756731D+04 0.000000000000000D+00 0.000000000000000D+00 -.145069142756731D+04
 0.114339673402376D+04 0.264435046428877D+03 -.640231678795257D+03 0.901059706713915D+03
 0.335663196773506D+03 0.439906095954205D+01 -.909352327646920D+01 0.335511158928141D+03
 0.142232292433735D+04 -.268834107388419D+03 0.649325202071726D+03 -.123657086564206D+04
 0.000000000000000D+00 -.000000000000000D+00 0.000000000000000D+00 0.000000000000000D+00
 0.222687821400517D+04 0.000000000000000D+00 0.000000000000000D+00 0.222687821400517D+04
 0.179901928203539D+04 0.000000000000000D+00 0.000000000000000D+00 -.179901928203539D+04
 0.131676778382406D+04 0.626441191570441D+03 -.716878814694213D+03 0.901059706713915D+03
 0.353106424439810D+03 0.105749533115840D+03 -.305523397000116D+02 0.335511158928141D+03
 0.136582278589305D+04 0.141433528507926D+03 0.562459717423135D+03 -.123657086564206D+04
 0.990200501883639D+03 -.873624253194208D+03 0.184971436971089D+03 0.427858931969783D+03
0.314255670569D-02 0.000000000000D+00 0.000000000000D+00 0.191123590356D-04 0.000000000000D+00  6 2 -2 25 2 -2 21 0 0.37084360D+00 0.13431750D+00 0.50180125D+06 0.50180125D+06 0.50180125D+06 0.10684000D+01  1  2  2  1  6  1        2 0.611929799214D-03 0.100000000000D+01
0.262495214929D-02 0.000000000000D+00 -.120682452040D-04 0.191123590356D-04 0.000000000000D+00  6 2 -2 25 2 -2 21 2 0.37084360D+00 0.13431750D+00 0.50180125D+06 0.50180125D+06 0.50180125D+06 0.10684000D+01  1  2  3  1  6  1        2 0.583455395863D-03 0.100000000000D+01
-.224428067412D-02 0.000000000000D+00 0.000000000000D+00 0.191123590356D-04 0.000000000000D+00  6 2 -2 25 2 -2 21 2 0.37084360D+00 0.13431750D+00 0.50180125D+06 0.50180125D+06 0.50180125D+06 0.10684000D+01  1  2 15  1  6  1        2 -.498842491090D-03 0.100000000000D+01
-.126885969966D-04 0.000000000000D+00 0.000000000000D+00 0.191123590356D-04 0.000000000000D+00  6 2 -2 25 2 -2 21 2 0.37084360D+00 0.13431750D+00 0.50180125D+06 0.50180125D+06 0.50180125D+06 0.10684000D+01  1  2  4  1  6  1        2 -.282032965270D-05 0.100000000000D+01
-.115810724336D-02 0.000000000000D+00 -.156481978535D-02 0.191123590356D-04 0.000000000000D+00  6 2 -2 25 2 -2 21 2 0.59872050D+00 0.13431750D+00 0.50180125D+06 0.50180125D+06 0.50180125D+06 0.10684000D+01  1  2  5  1  6  1        2 -.264090502815D-04 0.100000000000D+01
0.185463080562D-02 0.000000000000D+00 0.140099071399D-02 0.191123590356D-04 0.000000000000D+00  6 2 -2 25 2 -2 21 2 0.37084360D+00 0.13431750D+00 0.50180125D+06 0.50180125D+06 0.50180125D+06 0.10684000D+01  1  2  6  1  6  1        2 0.412233933928D-03 0.100000000000D+01
0.403755211478D-05 0.000000000000D+00 -.853098061733D-04 0.191123590356D-04 0.000000000000D+00  6 21 -2 25 2 -2 -2 2 0.59872050D+00 0.13431750D+00 0.50180125D+06 0.50180125D+06 0.50180125D+06 0.10684000D+01  1  2  5  5  6  1        2 0.194370897403D-08 0.100000000000D+01
  </mgrwgt>
  </event>
  <event>
  5     66 -.15870568E-05 0.22694660E+03 0.75467711E-02 0.92469421E-01
        2 -1    0    0  502    0 0.00000000E+00 0.00000000E+00 0.33713835E+04 0.33713835E+04 0.32000000E+00 0.0000E+00 0.9000E+01
       -2 -1    0    0    0  501 0.00000000E+00 0.00000000E+00 -.12858261E+04 0.12858261E+04 0.32000000E+00 0.0000E+00 0.9000E+01
       25  1    1    2    0    0 0.45070052E+03 0.35060459E+03 0.21673655E+03 0.62342142E+03 0.12500000E+03 0.0000E+00 0.9000E+01
        2  1    1    2  502    0 -.22552848E+03 -.25368870E+02 0.29105998E+04 0.29194345E+04 0.32000000E+00 0.0000E+00 0.9000E+01
       -2  1    1    2    0  501 -.22517203E+03 -.32523572E+03 -.10417789E+04 0.11143537E+04 0.32000000E+00 0.0000E+00 0.9000E+01
#aMCatNLO 1  0  0  1  4 0.15615421D+02 0.00000000D+00  -5  6  0 0.00000000D+00 0.00000000D+00 0.00000000D+00 0.00000000D+00 0.00000000D+00
  <mgrwgt>
 -.1045427165D-02   11    2    0
 0.208206940714675D+04 0.000000000000000D+00 0.000000000000000D+00 0.208206940714675D+04
 0.208206940714675D+04 0.000000000000000D+00 0.000000000000000D+00 -.208206940714675D+04
 0.588705096604194D+03 0.450711741086896D+03 0.350624466358783D+03 -.697861075343128D+02
 0.180734985627829D+04 -.225524291057657D+03 -.253683981216657D+02 0.179304454532196D+04
 0.176808386141101D+04 -.225187450029240D+03 -.325256068237117D+03 -.172325843778765D+04
 0.000000000000000D+00 -.000000000000000D+00 -.000000000000000D+00 0.000000000000000D+00
 0.254717054176939D+04 0.000000000000000D+00 0.000000000000000D+00 0.254717054176939D+04
 0.208221511958599D+04 0.000000000000000D+00 0.000000000000000D+00 -.208221511958599D+04
 0.590576791233321D+03 0.451569554132827D+03 0.352662421189066D+03 -.697861075343128D+02
 0.180694678861499D+04 -.222895241255544D+03 -.191224162393835D+02 0.179304454532196D+04
 0.176664451306907D+04 -.222616278416478D+03 -.319147590833364D+03 -.172325843778765D+04
 0.465217568438001D+03 -.605803446080496D+01 -.143924141163186D+02 0.464955422183399D+03
0.224709111376D-03 0.000000000000D+00 0.000000000000D+00 0.362063896550D-04 0.000000000000D+00  6 2 -2 25 2 -2 21 0 0.51867439D+00 0.19781940D+00 0.36427425D+06 0.36427425D+06 0.36427425D+06 0.10783690D+01  1  2  2  1  6  1        2 0.371865690084D-05 0.100000000000D+01
0.341452729481D-04 0.000000000000D+00 -.862942154953D-06 0.362063896550D-04 0.000000000000D+00  6 2 -2 25 2 -2 21 2 0.51867439D+00 0.19781940D+00 0.36427425D+06 0.36427425D+06 0.36427425D+06 0.10783690D+01  1  2  3  1  6  1        2 0.657099019397D-06 0.100000000000D+01
-.137643730673D-03 0.000000000000D+00 0.000000000000D+00 0.362063896550D-04 0.000000000000D+00  6 2 -2 25 2 -2 21 2 0.51867439D+00 0.19781940D+00 0.36427425D+06 0.36427425D+06 0.36427425D+06 0.10783690D+01  1  2 15  1  6  1        2 -.264884573010D-05 0.100000000000D+01
0.664375788652D-09 0.000000000000D+00 0.000000000000D+00 0.362063896550D-04 0.000000000000D+00  6 2 -2 25 2 -2 21 2 0.63455350D+00 0.19781940D+00 0.36898762D+06 0.36898762D+06 0.36898762D+06 0.10779634D+01  1  2 12  1  6  1        2 0.337439585279D-11 0.100000000000D+01
0.223754596264D+00 0.000000000000D+00 0.000000000000D+00 0.362063896550D-04 0.000000000000D+00  6 2 -2 25 2 -2 21 2 0.64029519D+00 0.19781940D+00 0.36898762D+06 0.36898762D+06 0.36898762D+06 0.10779634D+01  1  2 12  1  6  1        2 0.105486539467D-02 0.100000000000D+01
-.281785512713D+00 0.000000000000D+00 0.000000000000D+00 0.362063896550D-04 0.000000000000D+00  6 2 -2 25 2 -2 21 2 0.51867439D+00 0.19781940D+00 0.36427425D+06 0.36427425D+06 0.36427425D+06 0.10783690D+01  1  2  4  1  6  1        2 -.542274136644D-02 0.100000000000D+01
-.236481337582D+00 0.000000000000D+00 -.162999652435D-03 0.362063896550D-04 0.000000000000D+00  6 2 -2 25 2 -2 21 2 0.63454528D+00 0.19781940D+00 0.36427425D+06 0.36427425D+06 0.36427425D+06 0.10783690D+01  1  2  5  1  6  1        2 -.120414147822D-02 0.100000000000D+01
0.235132349484D+00 0.000000000000D+00 0.162048223103D-03 0.362063896550D-04 0.000000000000D+00  6 2 -2 25 2 -2 21 2 0.51867439D+00 0.19781940D+00 0.36427425D+06 0.36427425D+06 0.36427425D+06 0.10783690D+01  1  2  6  1  6  1        2 0.452493780060D-02 0.100000000000D+01
0.191320709638D-10 0.000000000000D+00 0.000000000000D+00 0.362063896550D-04 0.000000000000D+00  6 21 -2 25 2 -2 -2 2 0.63455350D+00 0.19781940D+00 0.36898762D+06 0.36898762D+06 0.36898762D+06 0.10779634D+01  1  2 12  5  6  1        2 0.161189576965D-14 0.100000000000D+01
0.666185780316D-02 0.000000000000D+00 0.000000000000D+00 0.362063896550D-04 0.000000000000D+00  6 21 -2 25 2 -2 -2 2 0.64029519D+00 0.19781940D+00 0.36898762D+06 0.36898762D+06 0.36898762D+06 0.10779634D+01  1  2 12  5  6  1        2 0.500882649483D-06 0.100000000000D+01
-.680772954639D-02 0.000000000000D+00 -.469368047929D-05 0.362063896550D-04 0.000000000000D+00  6 21 -2 25 2 -2 -2 2 0.63454528D+00 0.19781940D+00 0.36427425D+06 0.36427425D+06 0.36427425D+06 0.10783690D+01  1  2  5  5  6  1        2 -.575312105110D-06 0.100000000000D+01
  </mgrwgt>
  </event>
  <event>
  5     66 -.15870568E-05 0.17701430E+03 0.75467711E-02 0.94907623E-01
        2 -1    0    0  502    0 0.00000000E+00 0.00000000E+00 0.43301266E+04 0.43301266E+04 0.32000000E+00 0.0000E+00 0.9000E+01
       -2 -1    0    0    0  501 0.00000000E+00 0.00000000E+00 -.36501296E+03 0.36501311E+03 0.32000000E+00 0.0000E+00 0.9000E+01
       25  1    1    2    0    0 0.37060549E+03 -.29568056E+03 0.12874540E+04 0.13776567E+04 0.12500000E+03 0.0000E+00 0.9000E+01
        2  1    1    2  502    0 -.21211928E+03 0.21688518E+03 0.29647431E+04 0.29802240E+04 0.32000000E+00 0.0000E+00 0.9000E+01
       -2  1    1    2    0  501 -.15848621E+03 0.78795374E+02 -.28708341E+03 0.33725891E+03 0.32000000E+00 0.0000E+00 0.9000E+01
#aMCatNLO 1  0  0  5  4 0.69385649D+02 0.00000000D+00  -5  6  0 0.00000000D+00 0.00000000D+00 0.00000000D+00 0.00000000D+00 0.00000000D+00
  <mgrwgt>
 -.1301366124D-02    5    2    0
 0.125720034255538D+04 0.000000000000000D+00 0.000000000000000D+00 0.125720034255538D+04
 0.125720034255538D+04 -.000000000000000D+00 -.000000000000000D+00 -.125720034255538D+04
 0.542274782565275D+03 0.370604752642143D+03 -.295670386796004D+03 0.231663720718573D+03
 0.889603489120420D+03 -.212099811072043D+03 0.216865275474430D+03 0.836287923081416D+03
 0.108252241342507D+04 -.158504941570100D+03 0.788051113215745D+02 -.106795164379999D+04
 0.000000000000000D+00 -.000000000000000D+00 0.000000000000000D+00 0.000000000000000D+00
 0.125720034255538D+04 0.000000000000000D+00 0.000000000000000D+00 0.125720034255538D+04
 0.125720034255538D+04 -.000000000000000D+00 -.000000000000000D+00 -.125720034255538D+04
 0.541139461733273D+03 0.370307868273873D+03 -.295522782529163D+03 0.229663416210892D+03
 0.886696972135959D+03 -.212586564724280D+03 0.217107278502037D+03 0.833008344805289D+03
 0.419817065673609D+03 0.267983680239679D+01 0.408831380616272D+01 -.419788604890288D+03
 0.666747185567927D+03 -.160401140351990D+03 0.743271902209631D+02 -.642883156125893D+03
0.227134270568D-02 0.000000000000D+00 0.000000000000D+00 0.165965035754D-04 0.000000000000D+00  6 2 -2 25 2 -2 21 0 0.66617333D+00 0.56155852D-01 0.23554371D+06 0.23554371D+06 0.23554371D+06 0.10924105D+01  1  2  2  4  6  5       -2 0.157475166996D-03 0.100000000000D+01
0.319822769418D-03 0.000000000000D+00 -.872255404807D-05 0.165965035754D-04 0.000000000000D+00  6 2 -2 25 2 -2 21 2 0.66617333D+00 0.56155852D-01 0.23554371D+06 0.23554371D+06 0.23554371D+06 0.10924105D+01  1  2  3  4  6  5       -2 0.264612619737D-04 0.100000000000D+01
-.160644194037D-02 0.000000000000D+00 0.000000000000D+00 0.165965035754D-04 0.000000000000D+00  6 2 -2 25 2 -2 21 2 0.66617333D+00 0.56155852D-01 0.23554371D+06 0.23554371D+06 0.23554371D+06 0.10924105D+01  1  2 15  4  6  5       -2 -.132912616281D-03 0.100000000000D+01
0.980384493389D-09 0.000000000000D+00 0.000000000000D+00 0.165965035754D-04 0.000000000000D+00  6 2 -2 25 2 -2 21 2 0.66617333D+00 0.56155852D-01 0.23790800D+06 0.23790800D+06 0.23790800D+06 0.10920826D+01  1  2 12  4  6  5       -2 0.809795431133D-10 0.100000000000D+01
-.163455968649D-01 0.000000000000D+00 0.000000000000D+00 0.165965035754D-04 0.000000000000D+00  6 2 -2 25 2 -2 21 2 0.66617333D+00 0.56155852D-01 0.23554371D+06 0.23554371D+06 0.23554371D+06 0.10924105D+01  1  2  5  4  6  5       -2 -.135239001759D-02 0.100000000000D+01
  </mgrwgt>
  </event>
  <event>
  5     66 0.15870568E-05 0.16570274E+03 0.75467711E-02 0.94735374E-01
        2 -1    0    0  502    0 0.00000000E+00 0.00000000E+00 0.28560354E+04 0.28560355E+04 0.32000000E+00 0.0000E+00 0.9000E+01
       -2 -1    0    0    0  501 0.00000000E+00 0.00000000E+00 -.85198077E+03 0.85198083E+03 0.32000000E+00 0.0000E+00 0.9000E+01
       25  1    1    2    0    0 0.47976390E+03 -.79837675E+02 0.33915013E+03 0.60596639E+03 0.12500000E+03 0.0000E+00 0.9000E+01
        2  1    1    2  502    0 -.16554320E+03 0.73998955E+01 0.23442280E+04 0.23500776E+04 0.32000000E+00 0.0000E+00 0.9000E+01
       -2  1    1    2    0  501 -.31422070E+03 0.72437779E+02 -.67932350E+03 0.75197234E+03 0.32000000E+00 0.0000E+00 0.9000E+01
#aMCatNLO 1  0  0  4  1 0.15768021D+02 0.00000000D+00  -5  6  0 0.00000000D+00 0.00000000D+00 0.00000000D+00 0.00000000D+00 0.00000000D+00
  <mgrwgt>
 0.5603117401D-03    3    2    0
 0.155989981129387D+04 0.000000000000000D+00 0.000000000000000D+00 0.155989981129387D+04
 0.155989981129387D+04 -.000000000000000D+00 -.000000000000000D+00 -.155989981129387D+04
 0.502382080591997D+03 0.479785900830235D+03 -.798435585027901D+02 0.139014542431830D+02
 0.128727004982284D+04 -.165537434124484D+03 0.739963762738235D+01 0.127656052909267D+04
 0.133014749217289D+04 -.314248466705750D+03 0.724439208754077D+02 -.129046198333586D+04
 0.000000000000000D+00 0.000000000000000D+00 0.000000000000000D+00 0.000000000000000D+00
 0.155989981129387D+04 0.000000000000000D+00 0.000000000000000D+00 0.155989981129387D+04
 0.155989981129387D+04 -.000000000000000D+00 -.000000000000000D+00 -.155989981129387D+04
 0.576114361018375D+03 0.436772798820284D+03 -.779208431376122D+02 0.345601824918547D+03
 0.976499958962423D+03 -.768555643465971D+03 -.210957672200179D+03 0.564243966108724D+03
 0.763020668970439D+03 -.397729183160228D+03 0.761755665536466D+02 -.646691055449993D+03
 0.804164633636494D+03 0.729512027805916D+03 0.212702948784145D+03 -.263154735577278D+03
0.109376859326D-01 0.000000000000D+00 0.000000000000D+00 0.625070418448D-04 0.000000000000D+00  6 2 -2 25 2 -2 21 0 0.43939007D+00 0.13107397D+00 0.24521467D+06 0.24521467D+06 0.24521467D+06 0.10910911D+01  1  2  2  3  6  4        2 0.131571387939D-02 0.100000000000D+01
0.183163458048D-02 0.000000000000D+00 -.420035939402D-04 0.625070418448D-04 0.000000000000D+00  6 2 -2 25 2 -2 21 2 0.43939007D+00 0.13107397D+00 0.24521467D+06 0.24521467D+06 0.24521467D+06 0.10910911D+01  1  2  3  3  6  4        2 0.262299147593D-03 0.100000000000D+01
-.710660666199D-02 0.000000000000D+00 0.000000000000D+00 0.625070418448D-04 0.000000000000D+00  6 2 -2 25 2 -2 21 2 0.43939007D+00 0.13107397D+00 0.24521467D+06 0.24521467D+06 0.24521467D+06 0.10910911D+01  1  2 15  3  6  4        2 -.101770128692D-02 0.100000000000D+01
  </mgrwgt>
  </event>
  <event>
  5     66 0.15870568E-05 0.16036128E+03 0.75467711E-02 0.92404699E-01
        2 -1    0    0  502    0 0.00000000E+00 0.00000000E+00 0.95301535E+03 0.95301541E+03 0.32000000E+00 0.0000E+00 0.9000E+01
       -2 -1    0    0    0  501 0.00000000E+00 0.00000000E+00 -.88001768E+03 0.88001774E+03 0.32000000E+00 0.0000E+00 0.9000E+01
       25  1    1    2    0    0 -.50554464E+03 0.43100616E+02 0.87035190E+02 0.52974822E+03 0.12500000E+03 0.0000E+00 0.9000E+01
        2  1    1    2  502    0 0.62421302E+01 0.16027756E+03 0.52015240E+03 0.54432204E+03 0.32000000E+00 0.0000E+00 0.9000E+01
       -2  1    1    2    0  501 0.49930251E+03 -.20337817E+03 -.53418992E+03 0.75896288E+03 0.32000000E+00 0.0000E+00 0.9000E+01
#aMCatNLO 1  0  0  4  1 0.12705088D+02 0.00000000D+00  -5  6  0 0.00000000D+00 0.00000000D+00 0.00000000D+00 0.00000000D+00 0.00000000D+00
  <mgrwgt>
 0.1111780130D-02    8    2    0
 0.915789528685365D+03 0.000000000000000D+00 0.000000000000000D+00 0.915789528685365D+03
 0.915789528685365D+03 -.000000000000000D+00 -.000000000000000D+00 -.915789528685365D+03
 0.526791430903504D+03 -.505624292991335D+03 0.431543008618722D+02 0.660756560882796D+02
 0.523899950538951D+03 0.624065992562317D+01 0.160239803934002D+03 0.498753864720465D+03
 0.780887675928274D+03 0.499383633065712D+03 -.203394104795874D+03 -.564829520808745D+03
 0.000000000000000D+00 0.000000000000000D+00 0.000000000000000D+00 0.000000000000000D+00
 0.915789528685365D+03 0.000000000000000D+00 0.000000000000000D+00 0.915789528685365D+03
 0.915789528685365D+03 -.000000000000000D+00 -.000000000000000D+00 -.915789528685365D+03
 0.526818244311865D+03 -.505621895459289D+03 0.432158616694670D+02 0.662672669736492D+02
 0.352319357963377D+03 0.298131763645643D+00 0.961910440862150D+02 0.338933804969026D+03
 0.780660796307680D+03 0.499387186433331D+03 -.203302865898481D+03 -.564545535484435D+03
 0.171780658787806D+03 0.593657726231244D+01 0.638959601427989D+02 0.159344463541759D+03
0.126955095367D-04 0.000000000000D+00 0.000000000000D+00 0.283000410096D-06 0.000000000000D+00  6 2 -2 25 2 -2 21 0 0.14661776D+00 0.13538734D+00 0.37344790D+06 0.37344790D+06 0.37344790D+06 0.10775847D+01  1  2  2  3  6  4        2 0.165228925936D-04 0.100000000000D+01
0.150927446808D-05 0.000000000000D+00 -.487540994254D-07 0.283000410096D-06 0.000000000000D+00  6 2 -2 25 2 -2 21 2 0.14661776D+00 0.13538734D+00 0.37344790D+06 0.37344790D+06 0.37344790D+06 0.10775847D+01  1  2  3  3  6  4        2 0.228090380872D-05 0.100000000000D+01
-.671344786154D-05 0.000000000000D+00 0.000000000000D+00 0.283000410096D-06 0.000000000000D+00  6 2 -2 25 2 -2 21 2 0.14661776D+00 0.13538734D+00 0.37344790D+06 0.37344790D+06 0.37344790D+06 0.10775847D+01  1  2 15  3  6  4        2 -.101457548782D-04 0.100000000000D+01
0.191251913876D-07 0.000000000000D+00 0.000000000000D+00 0.283000410096D-06 0.000000000000D+00  6 2 -2 25 2 -2 21 2 0.14661776D+00 0.13538734D+00 0.37343141D+06 0.37343141D+06 0.37343141D+06 0.10775861D+01  1  2 12  3  6  4        2 0.289032462747D-07 0.100000000000D+01
0.120421951652D-02 0.000000000000D+00 0.000000000000D+00 0.283000410096D-06 0.000000000000D+00  6 2 -2 25 2 -2 21 2 0.14661776D+00 0.13538734D+00 0.37343141D+06 0.37343141D+06 0.37343141D+06 0.10775861D+01  1  2 12  3  6  4        2 0.181989568363D-02 0.100000000000D+01
-.940247608718D-03 0.000000000000D+00 0.000000000000D+00 0.283000410096D-06 0.000000000000D+00  6 2 -2 25 2 -2 21 2 0.14661776D+00 0.13538734D+00 0.37344790D+06 0.37344790D+06 0.37344790D+06 0.10775847D+01  1  2  4  3  6  4        2 -.142095715340D-02 0.100000000000D+01
-.123374443880D-02 0.000000000000D+00 0.000000000000D+00 0.283000410096D-06 0.000000000000D+00  6 2 -2 25 2 -2 21 2 0.14661776D+00 0.13538734D+00 0.37344790D+06 0.37344790D+06 0.37344790D+06 0.10775847D+01  1  2  5  3  6  4        2 -.186450672092D-02 0.100000000000D+01
0.169968370300D-02 0.000000000000D+00 -.000000000000D+00 0.283000410096D-06 0.000000000000D+00  6 2 -2 25 2 -2 21 2 0.14661776D+00 0.13538734D+00 0.37344790D+06 0.37344790D+06 0.37344790D+06 0.10775847D+01  1  2  6  3  6  4        2 0.256866137590D-02 0.100000000000D+01
  </mgrwgt>
  </event>
  <event>
  5     66 -.15870568E-05 0.85875030E+02 0.75467711E-02 0.93750351E-01
        2 -1    0    0  502    0 0.00000000E+00 0.00000000E+00 0.97992981E+03 0.97992986E+03 0.32000000E+00 0.0000E+00 0.9000E+01
       -2 -1    0    0    0  501 0.00000000E+00 0.00000000E+00 -.84851662E+03 0.84851668E+03 0.32000000E+00 0.0000E+00 0.9000E+01
       25  1    1    2    0    0 0.45784801E+03 0.15919646E+02 0.22752468E+03 0.52656501E+03 0.12500000E+03 0.0000E+00 0.9000E+01
        2  1    1    2  502    0 0.60292427E+02 -.61186076E+02 0.50197639E+03 0.50927332E+03 0.32000000E+00 0.0000E+00 0.9000E+01
       -2  1    1    2    0  501 -.51814044E+03 0.45266430E+02 -.59808787E+03 0.79260821E+03 0.32000000E+00 0.0000E+00 0.9000E+01
#aMCatNLO 1  0  0  1  1 0.87909220D+02 0.00000000D+00  -5  6  0 0.00000000D+00 0.00000000D+00 0.00000000D+00 0.00000000D+00 0.00000000D+00
  <mgrwgt>
 -.8216105216D-03    5    2    0
 0.911858997459986D+03 0.000000000000000D+00 0.000000000000000D+00 0.911858997459986D+03
 0.911858997459986D+03 0.000000000000000D+00 0.000000000000000D+00 -.911858997459986D+03
 0.511658820848816D+03 0.457945631834722D+03 0.158997421249075D+02 0.190270190613925D+03
 0.474281116530119D+03 0.602744815101188D+02 -.611678649630653D+02 0.466441911358320D+03
 0.837778057541037D+03 -.518220113344841D+03 0.452681228381579D+02 -.656712101972245D+03
 0.000000000000000D+00 0.000000000000000D+00 0.000000000000000D+00 0.000000000000000D+00
 0.188212916866484D+04 0.000000000000000D+00 0.000000000000000D+00 0.188212916866484D+04
 0.931064747916286D+03 0.000000000000000D+00 0.000000000000000D+00 -.931064747916286D+03
 0.481580845134121D+03 0.423115034831961D+03 -.326501495093486D+02 0.190270190613925D+03
 0.479485265660734D+03 0.268281204447910D+02 -.107788289102024D+03 0.466441911358320D+03
 0.875900005183192D+03 -.578314803518285D+03 -.384970418957007D+02 -.656712101972245D+03
 0.976227800603082D+03 0.128371648241533D+03 0.178935480507074D+03 0.951064420748555D+03
0.224000148871D-03 0.000000000000D+00 0.000000000000D+00 0.235873517472D-05 0.000000000000D+00  6 2 -2 25 2 -2 21 0 0.15075844D+00 0.13054103D+00 0.29215852D+06 0.29215852D+06 0.29215852D+06 0.10854039D+01  1  2  2  1  6  1        2 0.312557961316D-03 0.100000000000D+01
0.479027608180D-04 0.000000000000D+00 -.860219552258D-06 0.235873517472D-05 0.000000000000D+00  6 2 -2 25 2 -2 21 2 0.15075844D+00 0.13054103D+00 0.29215852D+06 0.29215852D+06 0.29215852D+06 0.10854039D+01  1  2  3  1  6  1        2 0.787454679687D-04 0.100000000000D+01
-.143867687928D-03 0.000000000000D+00 0.000000000000D+00 0.235873517472D-05 0.000000000000D+00  6 2 -2 25 2 -2 21 2 0.15075844D+00 0.13054103D+00 0.29215852D+06 0.29215852D+06 0.29215852D+06 0.10854039D+01  1  2 15  1  6  1        2 -.236498444306D-03 0.100000000000D+01
-.228829760809D-02 0.000000000000D+00 -.126611356775D-03 0.235873517472D-05 0.000000000000D+00  6 2 -2 25 2 -2 21 2 0.31276442D+00 0.13054103D+00 0.29215852D+06 0.29215852D+06 0.29215852D+06 0.10854039D+01  1  2  5  1  6  1        2 -.962481933143D-03 0.100000000000D+01
-.172784767619D-03 0.000000000000D+00 -.999119649755D-05 0.235873517472D-05 0.000000000000D+00  6 21 -2 25 2 -2 -2 2 0.31276442D+00 0.13054103D+00 0.29215852D+06 0.29215852D+06 0.29215852D+06 0.10854039D+01  1  2  5  5  6  1        2 -.139335734553D-04 0.100000000000D+01
  </mgrwgt>
  </event>
  <event>
  5     66 0.15870568E-05 0.22942139E+03 0.75467711E-02 0.90519424E-01
        2 -1    0    0  502    0 0.00000000E+00 0.00000000E+00 0.41180376E+04 0.41180376E+04 0.32000000E+00 0.0000E+00 0.9000E+01
       -2 -1    0    0    0  501 0.00000000E+00 0.00000000E+00 -.84205235E+03 0.84205241E+03 0.32000000E+00 0.0000E+00 0.9000E+01
       25  1    1    2    0    0 -.39036430E+03 -.38559841E+03 0.45875639E+03 0.72605292E+03 0.12500000E+03 0.0000E+00 0.9000E+01
        2  1    1    2  502    0 0.60049198E+03 0.29354206E+03 0.34743308E+04 0.35380407E+04 0.32000000E+00 0.0000E+00 0.9000E+01
       -2  1    1    2    0  501 -.21012768E+03 0.92056351E+02 -.65710190E+03 0.69599642E+03 0.32000000E+00 0.0000E+00 0.9000E+01
#aMCatNLO 1  0  0  1  1 0.87909220D+02 0.00000000D+00  -5  6  0 0.00000000D+00 0.00000000D+00 0.00000000D+00 0.00000000D+00 0.00000000D+00
  <mgrwgt>
 0.1783898834D-04    1    2    0
 0.186215022482669D+04 0.000000000000000D+00 0.000000000000000D+00 0.186215022482669D+04
 0.186215022482669D+04 0.000000000000000D+00 0.000000000000000D+00 -.186215022482669D+04
 0.563420700992530D+03 -.390343257969312D+03 -.385600449473303D+03 -.276101544871518D+02
 0.165589456086204D+04 0.600482719897193D+03 0.293537532034390D+03 0.151500594622084D+04
 0.150498518779880D+04 -.210139461927881D+03 0.920629174389130D+02 -.148739579173369D+04
 0.000000000000000D+00 0.000000000000000D+00 -.000000000000000D+00 0.000000000000000D+00
 0.269050465003022D+04 0.000000000000000D+00 0.000000000000000D+00 0.269050465003022D+04
 0.188420264082318D+04 0.000000000000000D+00 0.000000000000000D+00 -.188420264082318D+04
 0.578703887255288D+03 -.424924907544495D+03 -.371415793204703D+03 -.276101544871518D+02
 0.163034214304036D+04 0.500980890337772D+03 0.334351063711896D+03 0.151500594622084D+04
 0.152324059867620D+04 -.301829146275777D+03 0.129672073503713D+03 -.148739579173369D+04
 0.842420661881562D+03 0.225773163482500D+03 -.926073440109068D+02 0.806302009207045D+03
0.110711876675D-02 0.000000000000D+00 0.000000000000D+00 0.249303178118D-05 0.000000000000D+00  6 2 -2 25 2 -2 21 2 0.63354426D+00 0.12954652D+00 0.53330458D+06 0.53330458D+06 0.53330458D+06 0.10665367D+01  1  2 14  1  6  1        2 0.178389883447D-04 0.100000000000D+01
  </mgrwgt>
  </event>
  <event>
  5     66 0.15870568E-05 0.14883040E+02 0.75467711E-02 0.89957418E-01
        2 -1    0    0  502    0 0.00000000E+00 0.00000000E+00 0.73049659E+03 0.73049666E+03 0.32000000E+00 0.0000E+00 0.9000E+01
       -2 -1    0    0    0  501 -.00000000E+00 -.00000000E+00 -.14524010E+04 0.14524010E+04 0.32000000E+00 0.0000E+00 0.9000E+01
       25  1    1    2    0    0 0.87448202E+02 0.57520143E+03 0.18367589E+03 0.62278865E+03 0.12500000E+03 0.0000E+00 0.9000E+01
        2  1    1    2  502    0 -.75856567E+02 -.56587004E+03 0.78159178E+02 0.57625696E+03 0.32000000E+00 0.0000E+00 0.9000E+01
       -2  1    1    2    0  501 -.11591635E+02 -.93313855E+01 -.98373945E+03 0.98385204E+03 0.32000000E+00 0.0000E+00 0.9000E+01
#aMCatNLO 1  0  0  5  2 0.61040667D+01 0.00000000D+00  -5  6  0 0.00000000D+00 0.00000000D+00 0.00000000D+00 0.00000000D+00 0.00000000D+00
  <mgrwgt>
 0.1631680179D-02    6    2    0
 0.103003595298928D+04 0.000000000000000D+00 0.000000000000000D+00 0.103003595298928D+04
 0.103003595298928D+04 -.000000000000000D+00 -.000000000000000D+00 -.103003595298928D+04
 0.724293779958167D+03 0.874369005593569D+02 0.575106186766181D+03 0.413018331372742D+03
 0.637894639144683D+03 -.758436139948593D+02 -.565773417520946D+03 0.284706439850581D+03
 0.697883486875704D+03 -.115932865644988D+02 -.933276924523614D+01 -.697724771223324D+03
 0.000000000000000D+00 0.000000000000000D+00 -.000000000000000D+00 0.000000000000000D+00
 0.103003595298928D+04 0.000000000000000D+00 0.000000000000000D+00 0.103003595298928D+04
 0.103003595298928D+04 -.000000000000000D+00 -.000000000000000D+00 -.103003595298928D+04
 0.703348409436169D+03 0.868214240628705D+02 0.574610718972332D+03 0.375976790536574D+03
 0.624428952866606D+03 -.763878193339946D+02 -.566211510966141D+03 0.251954247999358D+03
 0.348475734311455D+03 0.134145129468865D+03 0.122527155346191D+03 -.297367647612277D+03
 0.383818809364324D+03 -.144578734197742D+03 -.130926363352383D+03 -.330563390923655D+03
0.217206955822D-02 0.000000000000D+00 0.000000000000D+00 0.393074070807D-05 0.000000000000D+00  6 2 -2 25 2 -2 21 0 0.11238410D+00 0.22344631D+00 0.34851957D+06 0.34851957D+06 0.34851957D+06 0.10797677D+01  1  2  2  4  6  5       -2 0.911448198623D-03 0.100000000000D+01
0.219465029305D-02 0.000000000000D+00 -.834131902263D-05 0.393074070807D-05 0.000000000000D+00  6 2 -2 25 2 -2 21 2 0.11238410D+00 0.22344631D+00 0.34851957D+06 0.34851957D+06 0.34851957D+06 0.10797677D+01  1  2  3  4  6  5       -2 0.107370313701D-02 0.100000000000D+01
-.128290392117D-02 0.000000000000D+00 0.000000000000D+00 0.393074070807D-05 0.000000000000D+00  6 2 -2 25 2 -2 21 2 0.11238410D+00 0.22344631D+00 0.34851957D+06 0.34851957D+06 0.34851957D+06 0.10797677D+01  1  2 15  4  6  5       -2 -.627643487893D-03 0.100000000000D+01
-.272970717778D-03 0.000000000000D+00 0.000000000000D+00 0.393074070807D-05 0.000000000000D+00  6 2 -2 25 2 -2 21 2 0.11238410D+00 0.22344631D+00 0.34851957D+06 0.34851957D+06 0.34851957D+06 0.10797677D+01  1  2  4  4  6  5       -2 -.133547252115D-03 0.100000000000D+01
-.125665786849D-02 0.000000000000D+00 0.000000000000D+00 0.393074070807D-05 0.000000000000D+00  6 2 -2 25 2 -2 21 2 0.11238410D+00 0.22344631D+00 0.34851957D+06 0.34851957D+06 0.34851957D+06 0.10797677D+01  1  2  5  4  6  5       -2 -.614802959641D-03 0.100000000000D+01
0.209003710829D-02 0.000000000000D+00 -.000000000000D+00 0.393074070807D-05 0.000000000000D+00  6 2 -2 25 2 -2 21 2 0.11238410D+00 0.22344631D+00 0.34851957D+06 0.34851957D+06 0.34851957D+06 0.10797677D+01  1  2  6  4  6  5       -2 0.102252254345D-02 0.100000000000D+01
  </mgrwgt>
  </event>
  <event>
  6     66 0.15870568E-05 0.52501423E+02 0.75467711E-02 0.92856339E-01
        2 -1    0    0  502    0 0.00000000E+00 0.00000000E+00 0.99072879E+03 0.99072884E+03 0.32000000E+00 0.0000E+00 0.9000E+01
       -2 -1    0    0    0  501 -.00000000E+00 -.00000000E+00 -.27938384E+04 0.27938384E+04 0.32000000E+00 0.0000E+00 0.9000E+01
       25  1    1    2    0    0 0.90328030E+02 -.57196080E+03 0.51355222E+03 0.78400203E+03 0.12500000E+03 0.0000E+00 0.9000E+01
        2  1    1    2  503    0 -.87237513E+02 0.51094030E+03 -.19753201E+03 0.55469755E+03 0.32000000E+00 0.0000E+00 0.9000E+01
       -2  1    1    2    0  501 -.44308283E+01 0.52543397E+01 -.22777308E+04 0.22777412E+04 0.32000000E+00 0.0000E+00 0.9000E+01
       21  1    1    2  502  503 0.13403108E+01 0.55766162E+02 0.15860101E+03 0.16812646E+03 0.75000000E+00 0.0000E+00 0.9000E+01
#aMCatNLO 2  0  0  4  4 0.20390639D+03 0.00000000D+00  -5  6  0 0.00000000D+00 0.00000000D+00 0.00000000D+00 0.00000000D+00 0.00000000D+00
  <mgrwgt>
 0.5414328071D-03    1    2    0
 0.166371158840034D+04 0.000000000000000D+00 0.000000000000000D+00 0.166371158840034D+04
 0.166371158840034D+04 -.000000000000000D+00 -.000000000000000D+00 -.166371158840034D+04
 0.117008073242194D+04 0.962659503349248D+02 -.611128532395735D+03 0.985250579336557D+03
 0.771551700975067D+03 -.988801525239786D+02 0.652361422897644D+03 0.399924138592952D+03
 0.138579074340368D+04 0.261420218905384D+01 -.412328905019089D+02 -.138517471792951D+04
 0.000000000000000D+00 0.000000000000000D+00 0.000000000000000D+00 0.000000000000000D+00
 0.166371158840034D+04 0.000000000000000D+00 0.000000000000000D+00 0.166371158840034D+04
 0.166371158840034D+04 -.000000000000000D+00 -.000000000000000D+00 -.166371158840034D+04
 0.117028469681535D+04 0.902543947835380D+02 -.571467317953536D+03 0.100956452014393D+04
 0.523177907548635D+03 -.871401477676103D+02 0.510306332984433D+03 0.755590107795751D+02
 0.135670047651594D+04 -.443026963221639D+01 0.524298502601146D+01 -.135668311215169D+04
 0.277260095920761D+03 0.131602261628866D+01 0.559179999430913D+02 0.271559581228185D+03
0.420112985836D-01 0.000000000000D+00 0.000000000000D+00 0.632188583890D-05 0.105784381071D-07  6 2 -2 25 2 -2 21 2 0.15241982D+00 0.42982129D+00 0.34362496D+06 0.34362496D+06 0.34362496D+06 0.10802163D+01  1  2  1  3  6  4        2 0.541432807105D-03 0.100000000000D+01
  </mgrwgt>
  </event>
</LesHouchesEvents>
