<event>
 5    0  0.1911311E+001  0.2692033E+03  0.7546771E-02  0.1101736E+00
         21   -1    0    0  502  501  0.00000000000E+00  0.00000000000E+00  0.24662418755E+04  0.24662418755E+04  0.00000000000E+00 0.  1.
         21   -1    0    0  504  502 -0.00000000000E+00 -0.00000000000E+00 -0.16736123497E+03  0.16736123497E+03  0.00000000000E+00 0. -1.
         25    1    1    2    0    0 -0.17159714835E+03 -0.13733182732E+03 -0.48900043890E+02  0.25753024368E+03  0.12500000000E+03 0.  0.
         21    1    1    2  503  501  0.20073707581E+03  0.13010142427E+03  0.23276857719E+04  0.23399450436E+04  0.00000000000E+00 0.  1.
         21    1    1    2  504  503 -0.29139927467E+02  0.72304030515E+01  0.20094912474E+02  0.36127823189E+02  0.00000000000E+00 0.  1.
<mgrwt>
<rscale>  4 0.26920332E+03</rscale>
<asrwt>0</asrwt>
<pdfrwt beam="1">  1       21 0.37942180E+00 0.26920332E+03</pdfrwt>
<pdfrwt beam="2">  1       21 0.25747884E-01 0.26920332E+03</pdfrwt>
<totfact> 0.14925590E+02</totfact>
</mgrwt>
</event>
<event>
 5    0  0.1911311E+001  0.2582440E+03  0.7546771E-02  0.1108203E+00
         21   -1    0    0  502  501  0.00000000000E+00  0.00000000000E+00  0.29362454668E+03  0.29362454668E+03  0.00000000000E+00 0. -1.
         21   -1    0    0  504  502 -0.00000000000E+00 -0.00000000000E+00 -0.36395815174E+03  0.36395815174E+03  0.00000000000E+00 0. -1.
         25    1    1    2    0    0  0.16866758457E+03  0.16089743643E+03 -0.21487910099E+03  0.34078551492E+03  0.12500000000E+03 0.  0.
         21    1    1    2  503  501 -0.75582356859E+01 -0.24219934034E+02  0.96967211129E+02  0.10023159265E+03  0.00000000000E+00 0.  1.
         21    1    1    2  504  503 -0.16110934888E+03 -0.13667750240E+03  0.47578284802E+02  0.21656559086E+03  0.00000000000E+00 0. -1.
<mgrwt>
<rscale>  4 0.25824403E+03</rscale>
<asrwt>0</asrwt>
<pdfrwt beam="1">  1       21 0.45173007E-01 0.25824403E+03</pdfrwt>
<pdfrwt beam="2">  1       21 0.55993562E-01 0.25824403E+03</pdfrwt>
<totfact> 0.13593828E+04</totfact>
</mgrwt>
</event>
<event>
 5    0  0.1911311E+001  0.2618289E+03  0.7546771E-02  0.1106049E+00
         21   -1    0    0  504  501  0.00000000000E+00  0.00000000000E+00  0.15149066752E+03  0.15149066752E+03  0.00000000000E+00 0.  1.
         21   -1    0    0  503  502 -0.00000000000E+00 -0.00000000000E+00 -0.83911445068E+03  0.83911445068E+03  0.00000000000E+00 0. -1.
         25    1    1    2    0    0  0.18046142022E+03  0.94168539668E+02 -0.62795908353E+03  0.67185686618E+03  0.12500000000E+03 0.  0.
         21    1    1    2  503  501  0.25754857272E+02  0.17476652298E+02 -0.77555274563E+02  0.83567736963E+02  0.00000000000E+00 0. -1.
         21    1    1    2  504  502 -0.20621627749E+03 -0.11164519197E+03  0.17890574933E+02  0.23518051506E+03  0.00000000000E+00 0.  1.
<mgrwt>
<rscale>  4 0.26182891E+03</rscale>
<asrwt>0</asrwt>
<pdfrwt beam="1">  1       21 0.23306256E-01 0.26182891E+03</pdfrwt>
<pdfrwt beam="2">  1       21 0.12909453E+00 0.26182891E+03</pdfrwt>
<totfact> 0.72664682E+03</totfact>
</mgrwt>
</event>
<event>
 5    0  0.1911311E+001  0.3397706E+03  0.7546771E-02  0.1066894E+00
         21   -1    0    0  502  501  0.00000000000E+00  0.00000000000E+00  0.41134123977E+03  0.41134123977E+03  0.00000000000E+00 0.  1.
         21   -1    0    0  504  502 -0.00000000000E+00 -0.00000000000E+00 -0.29894072628E+03  0.29894072628E+03  0.00000000000E+00 0.  1.
         25    1    1    2    0    0 -0.14777867344E+02  0.31559570700E+03 -0.60239627896E+02  0.34506933855E+03  0.12500000000E+03 0.  0.
         21    1    1    2  503  501  0.46169450278E+01 -0.29200703826E+03  0.17316633342E+03  0.33952320334E+03  0.00000000000E+00 0.  1.
         21    1    1    2  504  503  0.10160922316E+02 -0.23588668743E+02 -0.52619203471E+00  0.25689424155E+02  0.00000000000E+00 0. -1.
<mgrwt>
<rscale>  4 0.33977056E+03</rscale>
<asrwt>0</asrwt>
<pdfrwt beam="1">  1       21 0.63283268E-01 0.33977056E+03</pdfrwt>
<pdfrwt beam="2">  1       21 0.45990881E-01 0.33977056E+03</pdfrwt>
<totfact> 0.96859675E+03</totfact>
</mgrwt>
</event>
