<event>
 5    0  0.1829809E+000  0.3768983E+03  0.7546771E-02  0.1052086E+00
         21   -1    0    0  502  501  0.00000000000E+00  0.00000000000E+00  0.13138462899E+03  0.13138462899E+03  0.00000000000E+00 0.  1.
         21   -1    0    0  503  502 -0.00000000000E+00 -0.00000000000E+00 -0.10307957022E+04  0.10307957022E+04  0.00000000000E+00 0.  1.
         25    1    1    2    0    0 -0.35244132765E+03 -0.47036525308E+02 -0.49605457391E+03  0.62299475475E+03  0.12500000000E+03 0.  0.
         21    1    1    2  503  504  0.19131917199E+02  0.12131466015E+02 -0.24197677637E+02  0.33147101327E+02  0.00000000000E+00 0.  1.
         21    1    1    2  504  501  0.33330941046E+03  0.34905059293E+02 -0.37915882169E+03  0.50603847514E+03  0.00000000000E+00 0.  1.
<mgrwt>
<rscale>  4 0.37689829E+03</rscale>
<asrwt>0</asrwt>
<pdfrwt beam="1">  1       21 0.20213019E-01 0.37689829E+03</pdfrwt>
<pdfrwt beam="2">  1       21 0.15858396E+00 0.37689829E+03</pdfrwt>
<totfact> 0.52220863E+03</totfact>
</mgrwt>
</event>
<event>
 5    0  0.1829809E+000  0.2827433E+03  0.7546771E-02  0.1094200E+00
         21   -1    0    0  502  501  0.00000000000E+00  0.00000000000E+00  0.21625072665E+04  0.21625072665E+04  0.00000000000E+00 0. -1.
         21   -1    0    0  503  502 -0.00000000000E+00 -0.00000000000E+00 -0.21047323946E+03  0.21047323946E+03  0.00000000000E+00 0.  1.
         25    1    1    2    0    0 -0.25999046309E+03 -0.23421713438E+01  0.20086369847E+04  0.20292481521E+04  0.12500000000E+03 0.  0.
         21    1    1    2  503  504  0.20050892803E+03  0.56803314617E+02  0.45811871492E+02  0.21337566483E+03  0.00000000000E+00 0.  1.
         21    1    1    2  504  501  0.59481535064E+02 -0.54461143273E+02 -0.10241482914E+03  0.13035668900E+03  0.00000000000E+00 0.  1.
<mgrwt>
<rscale>  4 0.28274327E+03</rscale>
<asrwt>0</asrwt>
<pdfrwt beam="1">  1       21 0.33269341E+00 0.28274327E+03</pdfrwt>
<pdfrwt beam="2">  1       21 0.32380500E-01 0.28274327E+03</pdfrwt>
<totfact> 0.17971601E+02</totfact>
</mgrwt>
</event>
<event>
 5    0  0.1829809E+000  0.2839252E+03  0.7546771E-02  0.1093564E+00
         21   -1    0    0  502  501  0.00000000000E+00  0.00000000000E+00  0.13166658831E+04  0.13166658831E+04  0.00000000000E+00 0. -1.
         21   -1    0    0  503  502 -0.00000000000E+00 -0.00000000000E+00 -0.11349227119E+03  0.11349227119E+03  0.00000000000E+00 0. -1.
         25    1    1    2    0    0  0.56607070240E+02  0.26460441318E+03  0.10628394320E+04  0.11038444248E+04  0.12500000000E+03 0.  0.
         21    1    1    2  503  504 -0.65594480482E+02 -0.24377029825E+03  0.84768023940E+02  0.26629346980E+03  0.00000000000E+00 0. -1.
         21    1    1    2  504  501  0.89874102417E+01 -0.20834114938E+02  0.55566155890E+02  0.60020259651E+02  0.00000000000E+00 0. -1.
<mgrwt>
<rscale>  4 0.28392518E+03</rscale>
<asrwt>0</asrwt>
<pdfrwt beam="1">  1       21 0.20256397E+00 0.28392518E+03</pdfrwt>
<pdfrwt beam="2">  1       21 0.17460350E-01 0.28392518E+03</pdfrwt>
<totfact> 0.35664282E+03</totfact>
</mgrwt>
</event>
<event>
 5    0  0.1829809E+000  0.3701919E+03  0.7546771E-02  0.1054620E+00
         21   -1    0    0  502  501  0.00000000000E+00  0.00000000000E+00  0.25274324212E+04  0.25274324212E+04  0.00000000000E+00 0. -1.
         21   -1    0    0  503  502 -0.00000000000E+00 -0.00000000000E+00 -0.22863831981E+03  0.22863831981E+03  0.00000000000E+00 0.  1.
         25    1    1    2    0    0 -0.13807597749E+03 -0.32672600978E+03  0.23264887765E+04  0.23566904523E+04  0.12500000000E+03 0.  0.
         21    1    1    2  503  504  0.75255165541E+02  0.28754981445E+03  0.38939799959E+02  0.29977415458E+03  0.00000000000E+00 0.  1.
         21    1    1    2  504  501  0.62820811948E+02  0.39176195332E+02 -0.66634475028E+02  0.99606134132E+02  0.00000000000E+00 0. -1.
<mgrwt>
<rscale>  4 0.37019192E+03</rscale>
<asrwt>0</asrwt>
<pdfrwt beam="1">  1       21 0.38883574E+00 0.37019192E+03</pdfrwt>
<pdfrwt beam="2">  1       21 0.35175128E-01 0.37019192E+03</pdfrwt>
<totfact> 0.63414589E+01</totfact>
</mgrwt>
</event>
<event>
 5    0  0.1829809E+000  0.2700808E+03  0.7546771E-02  0.1101233E+00
         21   -1    0    0  502  501  0.00000000000E+00  0.00000000000E+00  0.63756881303E+02  0.63756881303E+02  0.00000000000E+00 0.  1.
         21   -1    0    0  503  502 -0.00000000000E+00 -0.00000000000E+00 -0.10568659578E+04  0.10568659578E+04  0.00000000000E+00 0.  1.
         25    1    1    2    0    0  0.53935424776E+02 -0.23325869378E+03 -0.59312239504E+03  0.65171912951E+03  0.12500000000E+03 0.  0.
         21    1    1    2  503  504 -0.27256619638E+02  0.19923894389E+03 -0.33877470688E+03  0.39396368119E+03  0.00000000000E+00 0.  1.
         21    1    1    2  504  501 -0.26678805138E+02  0.34019749888E+02 -0.61211974599E+02  0.74940028425E+02  0.00000000000E+00 0.  1.
<mgrwt>
<rscale>  4 0.27008082E+03</rscale>
<asrwt>0</asrwt>
<pdfrwt beam="1">  1       21 0.98087519E-02 0.27008082E+03</pdfrwt>
<pdfrwt beam="2">  1       21 0.16259475E+00 0.27008082E+03</pdfrwt>
<totfact> 0.19305375E+04</totfact>
</mgrwt>
</event>
<event>
 5    0  0.1829809E+000  0.2346438E+03  0.7546771E-02  0.1123413E+00
         21   -1    0    0  502  501  0.00000000000E+00  0.00000000000E+00  0.10237237821E+03  0.10237237821E+03  0.00000000000E+00 0.  1.
         21   -1    0    0  503  502 -0.00000000000E+00 -0.00000000000E+00 -0.11869285101E+04  0.11869285101E+04  0.00000000000E+00 0.  1.
         25    1    1    2    0    0  0.49816561576E+02  0.23672558895E+03 -0.15195061504E+03  0.31182476438E+03  0.12500000000E+03 0.  0.
         21    1    1    2  503  504 -0.29338932730E+02 -0.19078151181E+03 -0.89252635904E+03  0.91316025965E+03  0.00000000000E+00 0.  1.
         21    1    1    2  504  501 -0.20477628847E+02 -0.45944077134E+02 -0.40079157797E+02  0.64315864268E+02  0.00000000000E+00 0.  1.
<mgrwt>
<rscale>  4 0.23464376E+03</rscale>
<asrwt>0</asrwt>
<pdfrwt beam="1">  1       21 0.15749597E-01 0.23464376E+03</pdfrwt>
<pdfrwt beam="2">  1       21 0.18260438E+00 0.23464376E+03</pdfrwt>
<totfact> 0.60604392E+03</totfact>
</mgrwt>
</event>
<event>
 5    0  0.1829809E+000  0.2452424E+03  0.7546771E-02  0.1116349E+00
         21   -1    0    0  502  501  0.00000000000E+00  0.00000000000E+00  0.20328822157E+03  0.20328822157E+03  0.00000000000E+00 0. -1.
         21   -1    0    0  503  502 -0.00000000000E+00 -0.00000000000E+00 -0.61346785722E+03  0.61346785722E+03  0.00000000000E+00 0. -1.
         25    1    1    2    0    0  0.16973514309E+03 -0.12533487867E+03  0.98320057795E+02  0.26421711598E+03  0.12500000000E+03 0.  0.
         21    1    1    2  503  504 -0.12986275697E+03  0.98449953687E+02 -0.43676649051E+03  0.46617775178E+03  0.00000000000E+00 0. -1.
         21    1    1    2  504  501 -0.39872386124E+02  0.26884924986E+02 -0.71733202936E+02  0.86361211028E+02  0.00000000000E+00 0.  1.
<mgrwt>
<rscale>  4 0.24524243E+03</rscale>
<asrwt>0</asrwt>
<pdfrwt beam="1">  1       21 0.31275112E-01 0.24524243E+03</pdfrwt>
<pdfrwt beam="2">  1       21 0.94379668E-01 0.24524243E+03</pdfrwt>
<totfact> 0.89285432E+03</totfact>
</mgrwt>
</event>
<event>
 5    0  0.1829809E+000  0.2449761E+03  0.7546771E-02  0.1116522E+00
         21   -1    0    0  502  501  0.00000000000E+00  0.00000000000E+00  0.66153933754E+03  0.66153933754E+03  0.00000000000E+00 0.  1.
         21   -1    0    0  503  502 -0.00000000000E+00 -0.00000000000E+00 -0.19463845279E+03  0.19463845279E+03  0.00000000000E+00 0. -1.
         25    1    1    2    0    0 -0.18734343141E+03 -0.96388430087E+02  0.56764304171E+03  0.61824907080E+03  0.12500000000E+03 0.  0.
         21    1    1    2  503  504  0.13858696226E+02  0.23637448042E+02 -0.11577184960E+02  0.29745984983E+02  0.00000000000E+00 0. -1.
         21    1    1    2  504  501  0.17348473518E+03  0.72750982045E+02 -0.89164972007E+02  0.20818273454E+03  0.00000000000E+00 0. -1.
<mgrwt>
<rscale>  4 0.24497610E+03</rscale>
<asrwt>0</asrwt>
<pdfrwt beam="1">  1       21 0.10177528E+00 0.24497610E+03</pdfrwt>
<pdfrwt beam="2">  1       21 0.29944378E-01 0.24497610E+03</pdfrwt>
<totfact> 0.81299745E+03</totfact>
</mgrwt>
</event>
<event>
 5    0  0.1829809E+000  0.3092737E+03  0.7546771E-02  0.1080695E+00
         21   -1    0    0  502  501  0.00000000000E+00  0.00000000000E+00  0.32994208277E+03  0.32994208277E+03  0.00000000000E+00 0.  1.
         21   -1    0    0  503  502 -0.00000000000E+00 -0.00000000000E+00 -0.46489757597E+03  0.46489757597E+03  0.00000000000E+00 0. -1.
         25    1    1    2    0    0 -0.28114641293E+03  0.31335565724E+02  0.18487471625E+03  0.36031775406E+03  0.12500000000E+03 0.  0.
         21    1    1    2  503  504  0.19196746325E+03 -0.18720329336E+02 -0.15806055133E+03  0.24936939581E+03  0.00000000000E+00 0. -1.
         21    1    1    2  504  501  0.89178949682E+02 -0.12615236388E+02 -0.16176965812E+03  0.18515250887E+03  0.00000000000E+00 0. -1.
<mgrwt>
<rscale>  4 0.30927370E+03</rscale>
<asrwt>0</asrwt>
<pdfrwt beam="1">  1       21 0.50760321E-01 0.30927370E+03</pdfrwt>
<pdfrwt beam="2">  1       21 0.71522703E-01 0.30927370E+03</pdfrwt>
<totfact> 0.60809243E+03</totfact>
</mgrwt>
</event>
<event>
 5    0  0.1829809E+000  0.2533122E+03  0.7546771E-02  0.1111229E+00
         21   -1    0    0  502  501  0.00000000000E+00  0.00000000000E+00  0.26732024332E+04  0.26732024332E+04  0.00000000000E+00 0. -1.
         21   -1    0    0  503  502 -0.00000000000E+00 -0.00000000000E+00 -0.11454013161E+03  0.11454013161E+03  0.00000000000E+00 0. -1.
         25    1    1    2    0    0 -0.21884548245E+03  0.66551614418E+02  0.22714627439E+04  0.22863705867E+04  0.12500000000E+03 0.  0.
         21    1    1    2  503  504  0.14391183617E+03  0.67601947751E+02 -0.17658859072E+02  0.15997648338E+03  0.00000000000E+00 0. -1.
         21    1    1    2  504  501  0.74933646275E+02 -0.13415356217E+03  0.30485841669E+03  0.34139549471E+03  0.00000000000E+00 0. -1.
<mgrwt>
<rscale>  4 0.25331221E+03</rscale>
<asrwt>0</asrwt>
<pdfrwt beam="1">  1       21 0.41126187E+00 0.25331221E+03</pdfrwt>
<pdfrwt beam="2">  1       21 0.17621561E-01 0.25331221E+03</pdfrwt>
<totfact> 0.19724682E+02</totfact>
</mgrwt>
</event>
<event>
 5    0  0.1829809E+000  0.2446193E+03  0.7546771E-02  0.1116753E+00
         21   -1    0    0  502  501  0.00000000000E+00  0.00000000000E+00  0.57188684658E+03  0.57188684658E+03  0.00000000000E+00 0. -1.
         21   -1    0    0  503  502 -0.00000000000E+00 -0.00000000000E+00 -0.98714941435E+02  0.98714941435E+02  0.00000000000E+00 0. -1.
         25    1    1    2    0    0  0.30862669586E+02 -0.20799299466E+03  0.34085598211E+03  0.41954903258E+03  0.12500000000E+03 0.  0.
         21    1    1    2  503  504 -0.15174737490E+02  0.17973547006E+03  0.11902384550E+03  0.21610596395E+03  0.00000000000E+00 0. -1.
         21    1    1    2  504  501 -0.15687932096E+02  0.28257524598E+02  0.13292077535E+02  0.34946791484E+02  0.00000000000E+00 0. -1.
<mgrwt>
<rscale>  4 0.24461928E+03</rscale>
<asrwt>0</asrwt>
<pdfrwt beam="1">  1       21 0.87982590E-01 0.24461928E+03</pdfrwt>
<pdfrwt beam="2">  1       21 0.15186914E-01 0.24461928E+03</pdfrwt>
<totfact> 0.41401828E+04</totfact>
</mgrwt>
</event>
<event>
 5    0  0.1829809E+000  0.3130627E+03  0.7546771E-02  0.1078887E+00
         21   -1    0    0  502  501  0.00000000000E+00  0.00000000000E+00  0.20121498065E+03  0.20121498065E+03  0.00000000000E+00 0. -1.
         21   -1    0    0  503  502 -0.00000000000E+00 -0.00000000000E+00 -0.66119952983E+03  0.66119952983E+03  0.00000000000E+00 0. -1.
         25    1    1    2    0    0 -0.27915626688E+03  0.66745898935E+02  0.26313364084E+01  0.31307372980E+03  0.12500000000E+03 0.  0.
         21    1    1    2  503  504  0.25078073201E+03 -0.81532597289E+02 -0.40148718845E+03  0.48034415002E+03  0.00000000000E+00 0. -1.
         21    1    1    2  504  501  0.28375534868E+02  0.14786698354E+02 -0.61128697137E+02  0.68996630649E+02  0.00000000000E+00 0. -1.
<mgrwt>
<rscale>  4 0.31306267E+03</rscale>
<asrwt>0</asrwt>
<pdfrwt beam="1">  1       21 0.30956150E-01 0.31306267E+03</pdfrwt>
<pdfrwt beam="2">  1       21 0.10172301E+00 0.31306267E+03</pdfrwt>
<totfact> 0.73569985E+03</totfact>
</mgrwt>
</event>
<event>
 5    0  0.1829809E+000  0.2656006E+03  0.7546771E-02  0.1103824E+00
         21   -1    0    0  502  501  0.00000000000E+00  0.00000000000E+00  0.69489521290E+03  0.69489521290E+03  0.00000000000E+00 0. -1.
         21   -1    0    0  503  502 -0.00000000000E+00 -0.00000000000E+00 -0.13630732157E+03  0.13630732157E+03  0.00000000000E+00 0. -1.
         25    1    1    2    0    0 -0.14720715461E+03  0.18234236290E+03  0.51363014339E+03  0.57823836597E+03  0.12500000000E+03 0.  0.
         21    1    1    2  503  504  0.81916807094E+02 -0.68103454628E+02  0.57025126253E+02  0.12083173772E+03  0.00000000000E+00 0. -1.
         21    1    1    2  504  501  0.65290347520E+02 -0.11423890827E+03 -0.12067378319E+02  0.13213243077E+03  0.00000000000E+00 0. -1.
<mgrwt>
<rscale>  4 0.26560061E+03</rscale>
<asrwt>0</asrwt>
<pdfrwt beam="1">  1       21 0.10690695E+00 0.26560061E+03</pdfrwt>
<pdfrwt beam="2">  1       21 0.20970358E-01 0.26560061E+03</pdfrwt>
<totfact> 0.14161368E+04</totfact>
</mgrwt>
</event>
<event>
 5    0  0.1829809E+000  0.3428987E+03  0.7546771E-02  0.1065568E+00
         21   -1    0    0  502  501  0.00000000000E+00  0.00000000000E+00  0.19327353645E+03  0.19327353645E+03  0.00000000000E+00 0.  1.
         21   -1    0    0  503  502 -0.00000000000E+00 -0.00000000000E+00 -0.58150288241E+03  0.58150288241E+03  0.00000000000E+00 0.  1.
         25    1    1    2    0    0  0.12819346364E+03 -0.29243967942E+03 -0.24349934393E+03  0.42056088824E+03  0.12500000000E+03 0.  0.
         21    1    1    2  503  504 -0.10053876129E+03  0.26487216622E+03 -0.11804376549E+03  0.30691959457E+03  0.00000000000E+00 0.  1.
         21    1    1    2  504  501 -0.27654702350E+02  0.27567513204E+02 -0.26686236535E+02  0.47295936049E+02  0.00000000000E+00 0.  1.
<mgrwt>
<rscale>  4 0.34289872E+03</rscale>
<asrwt>0</asrwt>
<pdfrwt beam="1">  1       21 0.29734390E-01 0.34289872E+03</pdfrwt>
<pdfrwt beam="2">  1       21 0.89461983E-01 0.34289872E+03</pdfrwt>
<totfact> 0.10677823E+04</totfact>
</mgrwt>
</event>
<event>
 5    0  0.1829809E+000  0.2391203E+03  0.7546771E-02  0.1120380E+00
         21   -1    0    0  502  501  0.00000000000E+00  0.00000000000E+00  0.44697971540E+02  0.44697971540E+02  0.00000000000E+00 0.  1.
         21   -1    0    0  503  502 -0.00000000000E+00 -0.00000000000E+00 -0.12413734413E+04  0.12413734413E+04  0.00000000000E+00 0.  1.
         25    1    1    2    0    0 -0.32956014668E+02 -0.20116514481E+03 -0.45623718725E+03  0.51510279112E+03  0.12500000000E+03 0.  0.
         21    1    1    2  503  504  0.47030203814E+02  0.18046882129E+03 -0.68854776311E+03  0.71335745431E+03  0.00000000000E+00 0.  1.
         21    1    1    2  504  501 -0.14074189146E+02  0.20696323515E+02 -0.51890519382E+02  0.57611167397E+02  0.00000000000E+00 0.  1.
<mgrwt>
<rscale>  4 0.23912029E+03</rscale>
<asrwt>0</asrwt>
<pdfrwt beam="1">  1       21 0.68766116E-02 0.23912029E+03</pdfrwt>
<pdfrwt beam="2">  1       21 0.19098051E+00 0.23912029E+03</pdfrwt>
<totfact> 0.23232176E+04</totfact>
</mgrwt>
</event>
<event>
 5    0  0.1829809E+000  0.2575299E+03  0.7546771E-02  0.1108636E+00
         21   -1    0    0  502  501  0.00000000000E+00  0.00000000000E+00  0.13435474639E+04  0.13435474639E+04  0.00000000000E+00 0. -1.
         21   -1    0    0  503  502 -0.00000000000E+00 -0.00000000000E+00 -0.58655197748E+02  0.58655197748E+02  0.00000000000E+00 0. -1.
         25    1    1    2    0    0 -0.74836868461E+02 -0.21235835778E+03  0.10236697349E+04  0.10555668407E+04  0.12500000000E+03 0.  0.
         21    1    1    2  503  504  0.15096993265E+02  0.14122663658E+02  0.20313805765E+02  0.28983090572E+02  0.00000000000E+00 0. -1.
         21    1    1    2  504  501  0.59739875196E+02  0.19823569412E+03  0.24090872550E+03  0.31765273040E+03  0.00000000000E+00 0. -1.
<mgrwt>
<rscale>  4 0.25752986E+03</rscale>
<asrwt>0</asrwt>
<pdfrwt beam="1">  1       21 0.20669959E+00 0.25752986E+03</pdfrwt>
<pdfrwt beam="2">  1       21 0.90238776E-02 0.25752986E+03</pdfrwt>
<totfact> 0.11277197E+04</totfact>
</mgrwt>
</event>
<event>
 5    0  0.1829809E+000  0.2670463E+03  0.7546771E-02  0.1102982E+00
         21   -1    0    0  502  501  0.00000000000E+00  0.00000000000E+00  0.94254247421E+03  0.94254247421E+03  0.00000000000E+00 0.  1.
         21   -1    0    0  503  502 -0.00000000000E+00 -0.00000000000E+00 -0.11154949197E+03  0.11154949197E+03  0.00000000000E+00 0.  1.
         25    1    1    2    0    0  0.16627519301E+03 -0.16745525728E+03  0.75234929064E+03  0.79833774690E+03  0.12500000000E+03 0.  0.
         21    1    1    2  503  504 -0.10358311501E+02  0.35324422706E+02  0.24866746076E+02  0.44423693195E+02  0.00000000000E+00 0.  1.
         21    1    1    2  504  501 -0.15591688151E+03  0.13213083458E+03  0.53776945525E+02  0.21133052608E+03  0.00000000000E+00 0.  1.
<mgrwt>
<rscale>  4 0.26704626E+03</rscale>
<asrwt>0</asrwt>
<pdfrwt beam="1">  1       21 0.14500653E+00 0.26704626E+03</pdfrwt>
<pdfrwt beam="2">  1       21 0.17161461E-01 0.26704626E+03</pdfrwt>
<totfact> 0.95354543E+03</totfact>
</mgrwt>
</event>
<event>
 5    0  0.1829809E+000  0.3119144E+03  0.7546771E-02  0.1079432E+00
         21   -1    0    0  502  501  0.00000000000E+00  0.00000000000E+00  0.35003460873E+03  0.35003460873E+03  0.00000000000E+00 0. -1.
         21   -1    0    0  503  502 -0.00000000000E+00 -0.00000000000E+00 -0.42430306542E+03  0.42430306542E+03  0.00000000000E+00 0. -1.
         25    1    1    2    0    0  0.13676732796E+03 -0.25091890932E+03  0.20459662353E+03  0.37302865763E+03  0.12500000000E+03 0.  0.
         21    1    1    2  503  504 -0.11481178513E+03  0.23151879238E+03 -0.25924749496E+03  0.36604912358E+03  0.00000000000E+00 0. -1.
         21    1    1    2  504  501 -0.21955542829E+02  0.19400116939E+02 -0.19617585267E+02  0.35259892936E+02  0.00000000000E+00 0. -1.
<mgrwt>
<rscale>  4 0.31191441E+03</rscale>
<asrwt>0</asrwt>
<pdfrwt beam="1">  1       21 0.53851478E-01 0.31191441E+03</pdfrwt>
<pdfrwt beam="2">  1       21 0.65277395E-01 0.31191441E+03</pdfrwt>
<totfact> 0.65628783E+03</totfact>
</mgrwt>
</event>
<event>
 5    0  0.1829809E+000  0.2359160E+03  0.7546771E-02  0.1122544E+00
         21   -1    0    0  502  501  0.00000000000E+00  0.00000000000E+00  0.74864579619E+03  0.74864579619E+03  0.00000000000E+00 0.  1.
         21   -1    0    0  503  502 -0.00000000000E+00 -0.00000000000E+00 -0.95537626860E+02  0.95537626860E+02  0.00000000000E+00 0.  1.
         25    1    1    2    0    0  0.20310243577E+03 -0.55998135765E+02  0.49285819389E+03  0.55038222165E+03  0.12500000000E+03 0.  0.
         21    1    1    2  503  504 -0.25838375886E+02 -0.31475316700E+02  0.59049685024E+02  0.71729927723E+02  0.00000000000E+00 0.  1.
         21    1    1    2  504  501 -0.17726405988E+03  0.87473452465E+02  0.10120029042E+03  0.22207127368E+03  0.00000000000E+00 0.  1.
<mgrwt>
<rscale>  4 0.23591599E+03</rscale>
<asrwt>0</asrwt>
<pdfrwt beam="1">  1       21 0.11517627E+00 0.23591599E+03</pdfrwt>
<pdfrwt beam="2">  1       21 0.14698097E-01 0.23591599E+03</pdfrwt>
<totfact> 0.23188607E+04</totfact>
</mgrwt>
</event>
<event>
 5    0  0.1829809E+000  0.3113793E+03  0.7546771E-02  0.1079687E+00
         21   -1    0    0  502  501  0.00000000000E+00  0.00000000000E+00  0.55845145045E+03  0.55845145045E+03  0.00000000000E+00 0.  1.
         21   -1    0    0  503  502 -0.00000000000E+00 -0.00000000000E+00 -0.16429556515E+03  0.16429556515E+03  0.00000000000E+00 0.  1.
         25    1    1    2    0    0 -0.26868109366E+03 -0.95616761303E+02  0.22877520195E+03  0.38638735507E+03  0.12500000000E+03 0.  0.
         21    1    1    2  503  504  0.17880300106E+03  0.47393696069E+02  0.73382322063E+02  0.19900161006E+03  0.00000000000E+00 0.  1.
         21    1    1    2  504  501  0.89878092598E+02  0.48223065234E+02  0.91998361287E+02  0.13735805047E+03  0.00000000000E+00 0. -1.
<mgrwt>
<rscale>  4 0.31137934E+03</rscale>
<asrwt>0</asrwt>
<pdfrwt beam="1">  1       21 0.85915607E-01 0.31137934E+03</pdfrwt>
<pdfrwt beam="2">  1       21 0.25276241E-01 0.31137934E+03</pdfrwt>
<totfact> 0.16321541E+04</totfact>
</mgrwt>
</event>
<event>
 5    0  0.1829809E+000  0.2443560E+03  0.7546771E-02  0.1116925E+00
         21   -1    0    0  502  501  0.00000000000E+00  0.00000000000E+00  0.37248097446E+03  0.37248097446E+03  0.00000000000E+00 0. -1.
         21   -1    0    0  503  502 -0.00000000000E+00 -0.00000000000E+00 -0.26820820410E+03  0.26820820410E+03  0.00000000000E+00 0.  1.
         25    1    1    2    0    0  0.47207579773E+02 -0.20458809347E+03  0.27236930929E+03  0.36591649897E+03  0.12500000000E+03 0.  0.
         21    1    1    2  503  504 -0.23532026850E+02  0.21001615724E+02 -0.17017539248E+02  0.35838816843E+02  0.00000000000E+00 0.  1.
         21    1    1    2  504  501 -0.23675552924E+02  0.18358647775E+03 -0.15107899969E+03  0.23893386274E+03  0.00000000000E+00 0.  1.
<mgrwt>
<rscale>  4 0.24435598E+03</rscale>
<asrwt>0</asrwt>
<pdfrwt beam="1">  1       21 0.57304765E-01 0.24435598E+03</pdfrwt>
<pdfrwt beam="2">  1       21 0.41262801E-01 0.24435598E+03</pdfrwt>
<totfact> 0.15692899E+04</totfact>
</mgrwt>
</event>
<event>
 5    0  0.1829809E+000  0.2028142E+03  0.7546771E-02  0.1147386E+00
         21   -1    0    0  502  501  0.00000000000E+00  0.00000000000E+00  0.72494436183E+02  0.72494436183E+02  0.00000000000E+00 0. -1.
         21   -1    0    0  503  502 -0.00000000000E+00 -0.00000000000E+00 -0.14515848070E+04  0.14515848070E+04  0.00000000000E+00 0. -1.
         25    1    1    2    0    0  0.20835705053E+03 -0.32280222790E+02 -0.19804402749E+03  0.31512078654E+03  0.12500000000E+03 0.  0.
         21    1    1    2  503  504 -0.60265619407E+02 -0.13651651295E+02 -0.10527047996E+03  0.12206631975E+03  0.00000000000E+00 0. -1.
         21    1    1    2  504  501 -0.14809143112E+03  0.45931874085E+02 -0.10757758633E+04  0.10868921369E+04  0.00000000000E+00 0. -1.
<mgrwt>
<rscale>  4 0.20281422E+03</rscale>
<asrwt>0</asrwt>
<pdfrwt beam="1">  1       21 0.11152992E-01 0.20281422E+03</pdfrwt>
<pdfrwt beam="2">  1       21 0.22332071E+00 0.20281422E+03</pdfrwt>
<totfact> 0.63588145E+03</totfact>
</mgrwt>
</event>
<event>
 5    0  0.1829809E+000  0.2508242E+03  0.7546771E-02  0.1112785E+00
         21   -1    0    0  502  501  0.00000000000E+00  0.00000000000E+00  0.28671317225E+02  0.28671317225E+02  0.00000000000E+00 0. -1.
         21   -1    0    0  503  502 -0.00000000000E+00 -0.00000000000E+00 -0.22962505681E+04  0.22962505681E+04  0.00000000000E+00 0. -1.
         25    1    1    2    0    0 -0.21728516318E+03 -0.86559428566E+01 -0.74959034587E+03  0.79044193595E+03  0.12500000000E+03 0.  0.
         21    1    1    2  503  504  0.94678104799E+02 -0.10745129381E+02 -0.82240473283E+03  0.82790636301E+03  0.00000000000E+00 0. -1.
         21    1    1    2  504  501  0.12260705838E+03  0.19401072238E+02 -0.69558417220E+03  0.70657358639E+03  0.00000000000E+00 0. -1.
<mgrwt>
<rscale>  4 0.25082418E+03</rscale>
<asrwt>0</asrwt>
<pdfrwt beam="1">  1       21 0.44109727E-02 0.25082418E+03</pdfrwt>
<pdfrwt beam="2">  1       21 0.35326925E+00 0.25082418E+03</pdfrwt>
<totfact> 0.52111425E+03</totfact>
</mgrwt>
</event>
<event>
 5    0  0.1829809E+000  0.2710194E+03  0.7546771E-02  0.1100698E+00
         21   -1    0    0  502  501  0.00000000000E+00  0.00000000000E+00  0.26408811067E+03  0.26408811067E+03  0.00000000000E+00 0.  1.
         21   -1    0    0  503  502 -0.00000000000E+00 -0.00000000000E+00 -0.50491049638E+03  0.50491049638E+03  0.00000000000E+00 0.  1.
         25    1    1    2    0    0 -0.20434420707E+01 -0.24392037449E+03  0.12423550566E+03  0.30093319128E+03  0.12500000000E+03 0.  0.
         21    1    1    2  503  504 -0.19464439937E+02  0.23006217243E+03 -0.21384014787E+03  0.31469838965E+03  0.00000000000E+00 0.  1.
         21    1    1    2  504  501  0.21507882007E+02  0.13858202063E+02 -0.15121774350E+03  0.15336702612E+03  0.00000000000E+00 0.  1.
<mgrwt>
<rscale>  4 0.27101941E+03</rscale>
<asrwt>0</asrwt>
<pdfrwt beam="1">  1       21 0.40628941E-01 0.27101941E+03</pdfrwt>
<pdfrwt beam="2">  1       21 0.77678536E-01 0.27101941E+03</pdfrwt>
<totfact> 0.81706506E+03</totfact>
</mgrwt>
</event>
<event>
 5    0  0.1829809E+000  0.2399662E+03  0.7546771E-02  0.1119815E+00
         21   -1    0    0  502  501  0.00000000000E+00  0.00000000000E+00  0.20674070833E+03  0.20674070833E+03  0.00000000000E+00 0.  1.
         21   -1    0    0  503  502 -0.00000000000E+00 -0.00000000000E+00 -0.43156869711E+03  0.43156869711E+03  0.00000000000E+00 0. -1.
         25    1    1    2    0    0 -0.13316823035E+03  0.15564384850E+03  0.94346550880E+02  0.25784696394E+03  0.12500000000E+03 0.  0.
         21    1    1    2  503  504  0.19519562100E+02 -0.14727510786E+02 -0.24457126115E+02  0.34584156724E+02  0.00000000000E+00 0. -1.
         21    1    1    2  504  501  0.11364866825E+03 -0.14091633771E+03 -0.29471741355E+03  0.34587828478E+03  0.00000000000E+00 0. -1.
<mgrwt>
<rscale>  4 0.23996622E+03</rscale>
<asrwt>0</asrwt>
<pdfrwt beam="1">  1       21 0.31806263E-01 0.23996622E+03</pdfrwt>
<pdfrwt beam="2">  1       21 0.66395184E-01 0.23996622E+03</pdfrwt>
<totfact> 0.19257191E+04</totfact>
</mgrwt>
</event>
<event>
 5    0  0.1829809E+000  0.2890734E+03  0.7546771E-02  0.1090834E+00
         21   -1    0    0  502  501  0.00000000000E+00  0.00000000000E+00  0.16531584782E+03  0.16531584782E+03  0.00000000000E+00 0. -1.
         21   -1    0    0  503  502 -0.00000000000E+00 -0.00000000000E+00 -0.47964920427E+03  0.47964920427E+03  0.00000000000E+00 0. -1.
         25    1    1    2    0    0  0.48572210691E+02  0.25608434201E+03 -0.22306658236E+03  0.36513305800E+03  0.12500000000E+03 0.  0.
         21    1    1    2  503  504  0.24143168301E+01 -0.63896375364E+02 -0.86873727167E+01  0.64529420849E+02  0.00000000000E+00 0.  1.
         21    1    1    2  504  501 -0.50986527521E+02 -0.19218796665E+03 -0.82579401378E+02  0.21530257324E+03  0.00000000000E+00 0. -1.
<mgrwt>
<rscale>  4 0.28907343E+03</rscale>
<asrwt>0</asrwt>
<pdfrwt beam="1">  1       21 0.25433208E-01 0.28907343E+03</pdfrwt>
<pdfrwt beam="2">  1       21 0.73792183E-01 0.28907343E+03</pdfrwt>
<totfact> 0.23038871E+04</totfact>
</mgrwt>
</event>
<event>
 5    0  0.1829809E+000  0.2638660E+03  0.7546771E-02  0.1104842E+00
         21   -1    0    0  502  501  0.00000000000E+00  0.00000000000E+00  0.38316372152E+03  0.38316372152E+03  0.00000000000E+00 0. -1.
         21   -1    0    0  503  502 -0.00000000000E+00 -0.00000000000E+00 -0.45872247288E+03  0.45872247288E+03  0.00000000000E+00 0. -1.
         25    1    1    2    0    0 -0.11652995312E+03 -0.20104985608E+03  0.29900384683E+03  0.39878387006E+03  0.12500000000E+03 0.  0.
         21    1    1    2  503  504  0.11289371982E+03  0.17842044034E+03 -0.35464685510E+03  0.41273870347E+03  0.00000000000E+00 0. -1.
         21    1    1    2  504  501  0.36362333009E+01  0.22629415742E+02 -0.19915743088E+02  0.30363620868E+02  0.00000000000E+00 0. -1.
<mgrwt>
<rscale>  4 0.26386602E+03</rscale>
<asrwt>0</asrwt>
<pdfrwt beam="1">  1       21 0.58948265E-01 0.26386602E+03</pdfrwt>
<pdfrwt beam="2">  1       21 0.70572688E-01 0.26386602E+03</pdfrwt>
<totfact> 0.46633764E+03</totfact>
</mgrwt>
</event>
<event>
 5    0  0.1829809E+000  0.7399443E+03  0.7546771E-02  0.9651260E-01
         21   -1    0    0  502  501  0.00000000000E+00  0.00000000000E+00  0.36834506749E+03  0.36834506749E+03  0.00000000000E+00 0.  1.
         21   -1    0    0  503  502 -0.00000000000E+00 -0.00000000000E+00 -0.16396347315E+04  0.16396347315E+04  0.00000000000E+00 0. -1.
         25    1    1    2    0    0 -0.14758523006E+03  0.72644096037E+03 -0.42409709417E+03  0.86312294276E+03  0.12500000000E+03 0.  0.
         21    1    1    2  503  504  0.94663762431E+02 -0.70662179052E+03 -0.79617441512E+03  0.10687232018E+04  0.00000000000E+00 0. -1.
         21    1    1    2  504  501  0.52921467625E+02 -0.19819169855E+02 -0.51018154739E+02  0.76133654466E+02  0.00000000000E+00 0. -1.
<mgrwt>
<rscale>  4 0.73994426E+03</rscale>
<asrwt>0</asrwt>
<pdfrwt beam="1">  1       21 0.56668473E-01 0.73994426E+03</pdfrwt>
<pdfrwt beam="2">  1       21 0.25225149E+00 0.73994426E+03</pdfrwt>
<totfact> 0.13128900E+02</totfact>
</mgrwt>
</event>
<event>
 5    0  0.1829809E+000  0.2640620E+03  0.7546771E-02  0.1104727E+00
         21   -1    0    0  502  501  0.00000000000E+00  0.00000000000E+00  0.88195472654E+02  0.88195472654E+02  0.00000000000E+00 0. -1.
         21   -1    0    0  503  502 -0.00000000000E+00 -0.00000000000E+00 -0.13876725612E+04  0.13876725612E+04  0.00000000000E+00 0. -1.
         25    1    1    2    0    0 -0.13069171890E+03 -0.19241469016E+03 -0.15513586435E+03  0.30626112190E+03  0.12500000000E+03 0.  0.
         21    1    1    2  503  504  0.64243405229E+02  0.59881041165E+02 -0.31020139539E+03  0.32239395141E+03  0.00000000000E+00 0. -1.
         21    1    1    2  504  501  0.66448313673E+02  0.13253364900E+03 -0.83413982879E+03  0.84721296053E+03  0.00000000000E+00 0. -1.
<mgrwt>
<rscale>  4 0.26406200E+03</rscale>
<asrwt>0</asrwt>
<pdfrwt beam="1">  1       21 0.13568535E-01 0.26406200E+03</pdfrwt>
<pdfrwt beam="2">  1       21 0.21348807E+00 0.26406200E+03</pdfrwt>
<totfact> 0.48948281E+03</totfact>
</mgrwt>
</event>
<event>
 5    0  0.1829809E+000  0.3057050E+03  0.7546771E-02  0.1082423E+00
         21   -1    0    0  502  501  0.00000000000E+00  0.00000000000E+00  0.31199229438E+03  0.31199229438E+03  0.00000000000E+00 0.  1.
         21   -1    0    0  503  502 -0.00000000000E+00 -0.00000000000E+00 -0.29787241791E+03  0.29787241791E+03  0.00000000000E+00 0.  1.
         25    1    1    2    0    0 -0.20807409741E+03 -0.18583794833E+03  0.83975190777E+02  0.31702902977E+03  0.12500000000E+03 0.  0.
         21    1    1    2  503  504  0.18613324759E+03  0.14468071855E+03 -0.70909782211E+02  0.24618345475E+03  0.00000000000E+00 0.  1.
         21    1    1    2  504  501  0.21940849819E+02  0.41157229775E+02  0.10544679073E+01  0.46652227772E+02  0.00000000000E+00 0.  1.
<mgrwt>
<rscale>  4 0.30570504E+03</rscale>
<asrwt>0</asrwt>
<pdfrwt beam="1">  1       21 0.47998815E-01 0.30570504E+03</pdfrwt>
<pdfrwt beam="2">  1       21 0.45826526E-01 0.30570504E+03</pdfrwt>
<totfact> 0.17897571E+04</totfact>
</mgrwt>
</event>
<event>
 5    0  0.1829809E+000  0.2142110E+03  0.7546771E-02  0.1138274E+00
         21   -1    0    0  502  501  0.00000000000E+00  0.00000000000E+00  0.23138906017E+03  0.23138906017E+03  0.00000000000E+00 0. -1.
         21   -1    0    0  503  502 -0.00000000000E+00 -0.00000000000E+00 -0.54847866466E+03  0.54847866466E+03  0.00000000000E+00 0. -1.
         25    1    1    2    0    0  0.14669599380E+03  0.20651436374E+03 -0.35090618318E+03  0.45047535607E+03  0.12500000000E+03 0.  0.
         21    1    1    2  503  504 -0.11961163135E+03 -0.11488583929E+03  0.11679194225E+03  0.20284490675E+03  0.00000000000E+00 0. -1.
         21    1    1    2  504  501 -0.27084362457E+02 -0.91628524458E+02 -0.82975363552E+02  0.12654746201E+03  0.00000000000E+00 0. -1.
<mgrwt>
<rscale>  4 0.21421100E+03</rscale>
<asrwt>0</asrwt>
<pdfrwt beam="1">  1       21 0.35598317E-01 0.21421100E+03</pdfrwt>
<pdfrwt beam="2">  1       21 0.84381332E-01 0.21421100E+03</pdfrwt>
<totfact> 0.91334064E+03</totfact>
</mgrwt>
</event>
<event>
 5    0  0.1829809E+000  0.2416614E+03  0.7546771E-02  0.1118691E+00
         21   -1    0    0  502  501  0.00000000000E+00  0.00000000000E+00  0.57538589366E+03  0.57538589366E+03  0.00000000000E+00 0.  1.
         21   -1    0    0  503  502 -0.00000000000E+00 -0.00000000000E+00 -0.10849347982E+04  0.10849347982E+04  0.00000000000E+00 0. -1.
         25    1    1    2    0    0 -0.76131921365E+02  0.19229966216E+03  0.53844543108E+03  0.59018955579E+03  0.12500000000E+03 0.  0.
         21    1    1    2  503  504  0.47044960250E+02 -0.17777362320E+03 -0.90345590606E+03  0.92198116227E+03  0.00000000000E+00 0. -1.
         21    1    1    2  504  501  0.29086961114E+02 -0.14526038954E+02 -0.14453842952E+03  0.14814997375E+03  0.00000000000E+00 0. -1.
<mgrwt>
<rscale>  4 0.24166139E+03</rscale>
<asrwt>0</asrwt>
<pdfrwt beam="1">  1       21 0.88520906E-01 0.24166139E+03</pdfrwt>
<pdfrwt beam="2">  1       21 0.16691305E+00 0.24166139E+03</pdfrwt>
<totfact> 0.23153446E+02</totfact>
</mgrwt>
</event>
<event>
 5    0  0.1829809E+000  0.2674270E+03  0.7546771E-02  0.1102761E+00
         21   -1    0    0  502  501  0.00000000000E+00  0.00000000000E+00  0.93779879492E+03  0.93779879492E+03  0.00000000000E+00 0.  1.
         21   -1    0    0  503  502 -0.00000000000E+00 -0.00000000000E+00 -0.93783997318E+02  0.93783997318E+02  0.00000000000E+00 0. -1.
         25    1    1    2    0    0 -0.21595921138E+03 -0.96196901867E+02  0.69826133115E+03  0.74772061058E+03  0.12500000000E+03 0.  0.
         21    1    1    2  503  504  0.46078581702E+02 -0.91589354726E+00  0.42116033488E+02  0.62432642339E+02  0.00000000000E+00 0. -1.
         21    1    1    2  504  501  0.16988062967E+03  0.97112795414E+02  0.10363743297E+03  0.22142953932E+03  0.00000000000E+00 0. -1.
<mgrwt>
<rscale>  4 0.26742705E+03</rscale>
<asrwt>0</asrwt>
<pdfrwt beam="1">  1       21 0.14427673E+00 0.26742705E+03</pdfrwt>
<pdfrwt beam="2">  1       21 0.14428308E-01 0.26742705E+03</pdfrwt>
<totfact> 0.13298427E+04</totfact>
</mgrwt>
</event>
<event>
 5    0  0.1829809E+000  0.2585536E+03  0.7546771E-02  0.1108015E+00
         21   -1    0    0  502  501  0.00000000000E+00  0.00000000000E+00  0.55803232625E+03  0.55803232625E+03  0.00000000000E+00 0. -1.
         21   -1    0    0  503  502 -0.00000000000E+00 -0.00000000000E+00 -0.14002822500E+03  0.14002822500E+03  0.00000000000E+00 0. -1.
         25    1    1    2    0    0  0.11487821259E+03  0.20525834510E+03  0.33917028800E+03  0.43126497217E+03  0.12500000000E+03 0.  0.
         21    1    1    2  503  504 -0.12882326838E+03 -0.18252693211E+03  0.52877638854E+02  0.22958127125E+03  0.00000000000E+00 0. -1.
         21    1    1    2  504  501  0.13945055784E+02 -0.22731412990E+02  0.25956174398E+02  0.37214307822E+02  0.00000000000E+00 0. -1.
<mgrwt>
<rscale>  4 0.25855364E+03</rscale>
<asrwt>0</asrwt>
<pdfrwt beam="1">  1       21 0.85851126E-01 0.25855364E+03</pdfrwt>
<pdfrwt beam="2">  1       21 0.21542804E-01 0.25855364E+03</pdfrwt>
<totfact> 0.22709869E+04</totfact>
</mgrwt>
</event>
<event>
 5    0  0.1829809E+000  0.2502208E+03  0.7546771E-02  0.1113165E+00
         21   -1    0    0  502  501  0.00000000000E+00  0.00000000000E+00  0.95604627531E+02  0.95604627531E+02  0.00000000000E+00 0. -1.
         21   -1    0    0  503  502 -0.00000000000E+00 -0.00000000000E+00 -0.70354034684E+03  0.70354034684E+03  0.00000000000E+00 0. -1.
         25    1    1    2    0    0  0.10596564392E+02  0.21650215361E+03 -0.46484213804E+03  0.52790972997E+03  0.12500000000E+03 0.  0.
         21    1    1    2  503  504  0.68461164982E+01 -0.34546488504E+02  0.55284051064E+01  0.35649578428E+02  0.00000000000E+00 0.  1.
         21    1    1    2  504  501 -0.17442680891E+02 -0.18195566510E+03 -0.14862198637E+03  0.23558566597E+03  0.00000000000E+00 0. -1.
<mgrwt>
<rscale>  4 0.25022084E+03</rscale>
<asrwt>0</asrwt>
<pdfrwt beam="1">  1       21 0.14708405E-01 0.25022084E+03</pdfrwt>
<pdfrwt beam="2">  1       21 0.10823697E+00 0.25022084E+03</pdfrwt>
<totfact> 0.26765805E+04</totfact>
</mgrwt>
</event>
<event>
 5    0  0.1829809E+000  0.3127184E+03  0.7546771E-02  0.1079050E+00
         21   -1    0    0  502  501  0.00000000000E+00  0.00000000000E+00  0.16422104018E+03  0.16422104018E+03  0.00000000000E+00 0.  1.
         21   -1    0    0  503  502 -0.00000000000E+00 -0.00000000000E+00 -0.13244669966E+04  0.13244669966E+04  0.00000000000E+00 0.  1.
         25    1    1    2    0    0 -0.20350145219E+03 -0.20187862281E+03 -0.23074521361E+02  0.31356857771E+03  0.12500000000E+03 0.  0.
         21    1    1    2  503  504  0.95760895219E+02  0.14523817375E+03 -0.70336562727E+03  0.72456019887E+03  0.00000000000E+00 0.  1.
         21    1    1    2  504  501  0.10774055697E+03  0.56640449064E+02 -0.43380580782E+03  0.45055926024E+03  0.00000000000E+00 0. -1.
<mgrwt>
<rscale>  4 0.31271843E+03</rscale>
<asrwt>0</asrwt>
<pdfrwt beam="1">  1       21 0.25264775E-01 0.31271843E+03</pdfrwt>
<pdfrwt beam="2">  1       21 0.20376416E+00 0.31271843E+03</pdfrwt>
<totfact> 0.17062912E+03</totfact>
</mgrwt>
</event>
<event>
 5    0  0.1829809E+000  0.4376917E+03  0.7546771E-02  0.1031457E+00
         21   -1    0    0  502  501  0.00000000000E+00  0.00000000000E+00  0.56737566008E+03  0.56737566008E+03  0.00000000000E+00 0.  1.
         21   -1    0    0  503  502 -0.00000000000E+00 -0.00000000000E+00 -0.46999883755E+03  0.46999883755E+03  0.00000000000E+00 0.  1.
         25    1    1    2    0    0 -0.44282222892E+03  0.17511231823E+03  0.71865590848E+02  0.49753945931E+03  0.12500000000E+03 0.  0.
         21    1    1    2  503  504  0.37719388758E+03 -0.67639363149E+02  0.96640356573E+02  0.39520838908E+03  0.00000000000E+00 0.  1.
         21    1    1    2  504  501  0.65628341341E+02 -0.10747295508E+03 -0.71129124893E+02  0.14462664923E+03  0.00000000000E+00 0.  1.
<mgrwt>
<rscale>  4 0.43769170E+03</rscale>
<asrwt>0</asrwt>
<pdfrwt beam="1">  1       21 0.87288563E-01 0.43769170E+03</pdfrwt>
<pdfrwt beam="2">  1       21 0.72307514E-01 0.43769170E+03</pdfrwt>
<totfact> 0.16802850E+03</totfact>
</mgrwt>
</event>
<event>
 5    0  0.1829809E+000  0.2789302E+03  0.7546771E-02  0.1096275E+00
         21   -1    0    0  502  501  0.00000000000E+00  0.00000000000E+00  0.94842808105E+02  0.94842808105E+02  0.00000000000E+00 0.  1.
         21   -1    0    0  503  502 -0.00000000000E+00 -0.00000000000E+00 -0.78166881095E+03  0.78166881095E+03  0.00000000000E+00 0.  1.
         25    1    1    2    0    0  0.90077783608E+02  0.23251460516E+03 -0.29637651840E+03  0.40699028167E+03  0.12500000000E+03 0.  0.
         21    1    1    2  503  504 -0.10399838957E+03 -0.20182537527E+03 -0.33782821592E+03  0.40703445875E+03  0.00000000000E+00 0.  1.
         21    1    1    2  504  501  0.13920605959E+02 -0.30689229890E+02 -0.52621268525E+02  0.62486878644E+02  0.00000000000E+00 0.  1.
<mgrwt>
<rscale>  4 0.27893019E+03</rscale>
<asrwt>0</asrwt>
<pdfrwt beam="1">  1       21 0.14591201E-01 0.27893019E+03</pdfrwt>
<pdfrwt beam="2">  1       21 0.12025674E+00 0.27893019E+03</pdfrwt>
<totfact> 0.20677040E+04</totfact>
</mgrwt>
</event>
<event>
 5    0  0.1829809E+000  0.3512472E+03  0.7546771E-02  0.1062104E+00
         21   -1    0    0  502  501  0.00000000000E+00  0.00000000000E+00  0.68556723120E+03  0.68556723120E+03  0.00000000000E+00 0.  1.
         21   -1    0    0  503  502 -0.00000000000E+00 -0.00000000000E+00 -0.25514427286E+03  0.25514427286E+03  0.00000000000E+00 0.  1.
         25    1    1    2    0    0  0.38200164853E+02 -0.32602203503E+03  0.48721123563E+03  0.60062418204E+03  0.12500000000E+03 0.  0.
         21    1    1    2  503  504 -0.33293044958E+02  0.30152207137E+03 -0.70706569495E+02  0.31148580278E+03  0.00000000000E+00 0.  1.
         21    1    1    2  504  501 -0.49071198953E+01  0.24499963664E+02  0.13918292193E+02  0.28601519239E+02  0.00000000000E+00 0. -1.
<mgrwt>
<rscale>  4 0.35124723E+03</rscale>
<asrwt>0</asrwt>
<pdfrwt beam="1">  1       21 0.10547188E+00 0.35124723E+03</pdfrwt>
<pdfrwt beam="2">  1       21 0.39252965E-01 0.35124723E+03</pdfrwt>
<totfact> 0.41075859E+03</totfact>
</mgrwt>
</event>
<event>
 5    0  0.1829809E+000  0.2039361E+03  0.7546771E-02  0.1146460E+00
         21   -1    0    0  502  501  0.00000000000E+00  0.00000000000E+00  0.80754706730E+03  0.80754706730E+03  0.00000000000E+00 0. -1.
         21   -1    0    0  503  502 -0.00000000000E+00 -0.00000000000E+00 -0.13898680672E+03  0.13898680672E+03  0.00000000000E+00 0. -1.
         25    1    1    2    0    0 -0.27162871249E+03  0.25133412219E+02  0.35583905781E+03  0.46546780868E+03  0.12500000000E+03 0.  0.
         21    1    1    2  503  504  0.14088971019E+03  0.19895417520E+02  0.34938374380E+01  0.14233040777E+03  0.00000000000E+00 0. -1.
         21    1    1    2  504  501  0.13073900230E+03 -0.45028829739E+02  0.30922736534E+03  0.33873565756E+03  0.00000000000E+00 0. -1.
<mgrwt>
<rscale>  4 0.20393614E+03</rscale>
<asrwt>0</asrwt>
<pdfrwt beam="1">  1       21 0.12423801E+00 0.20393614E+03</pdfrwt>
<pdfrwt beam="2">  1       21 0.21382586E-01 0.20393614E+03</pdfrwt>
<totfact> 0.97840564E+03</totfact>
</mgrwt>
</event>
<event>
 5    0  0.1829809E+000  0.2127843E+03  0.7546771E-02  0.1139380E+00
         21   -1    0    0  502  501  0.00000000000E+00  0.00000000000E+00  0.20350964250E+03  0.20350964250E+03  0.00000000000E+00 0.  1.
         21   -1    0    0  503  502 -0.00000000000E+00 -0.00000000000E+00 -0.57134782894E+03  0.57134782894E+03  0.00000000000E+00 0.  1.
         25    1    1    2    0    0 -0.78013960241E+02  0.21804179108E+03 -0.93284302932E+01  0.26332569237E+03  0.12500000000E+03 0.  0.
         21    1    1    2  503  504 -0.22738920036E+02 -0.11441148539E+03 -0.34752523308E+03  0.36657991503E+03  0.00000000000E+00 0.  1.
         21    1    1    2  504  501  0.10075288028E+03 -0.10363030570E+03 -0.10984523064E+02  0.14495186404E+03  0.00000000000E+00 0.  1.
<mgrwt>
<rscale>  4 0.21278429E+03</rscale>
<asrwt>0</asrwt>
<pdfrwt beam="1">  1       21 0.31309176E-01 0.21278429E+03</pdfrwt>
<pdfrwt beam="2">  1       21 0.87899664E-01 0.21278429E+03</pdfrwt>
<totfact> 0.10728735E+04</totfact>
</mgrwt>
</event>
<event>
 5    0  0.1829809E+000  0.2767901E+03  0.7546771E-02  0.1097455E+00
         21   -1    0    0  502  501  0.00000000000E+00  0.00000000000E+00  0.14775754754E+03  0.14775754754E+03  0.00000000000E+00 0.  1.
         21   -1    0    0  503  502 -0.00000000000E+00 -0.00000000000E+00 -0.54591860077E+03  0.54591860077E+03  0.00000000000E+00 0.  1.
         25    1    1    2    0    0 -0.24618537189E+03  0.19506971487E+02 -0.33689502797E+03  0.43601722344E+03  0.12500000000E+03 0.  0.
         21    1    1    2  503  504  0.20021815581E+03 -0.22061807541E+02 -0.64506697033E+02  0.21150684914E+03  0.00000000000E+00 0.  1.
         21    1    1    2  504  501  0.45967216073E+02  0.25548360538E+01  0.32406717703E+01  0.46152075731E+02  0.00000000000E+00 0. -1.
<mgrwt>
<rscale>  4 0.27679010E+03</rscale>
<asrwt>0</asrwt>
<pdfrwt beam="1">  1       21 0.22731931E-01 0.27679010E+03</pdfrwt>
<pdfrwt beam="2">  1       21 0.83987477E-01 0.27679010E+03</pdfrwt>
<totfact> 0.21394644E+04</totfact>
</mgrwt>
</event>
<event>
 5    0  0.1829809E+000  0.2337246E+03  0.7546771E-02  0.1124045E+00
         21   -1    0    0  502  501  0.00000000000E+00  0.00000000000E+00  0.12176893684E+04  0.12176893684E+04  0.00000000000E+00 0.  1.
         21   -1    0    0  503  502 -0.00000000000E+00 -0.00000000000E+00 -0.79595279147E+02  0.79595279147E+02  0.00000000000E+00 0.  1.
         25    1    1    2    0    0  0.10295627460E+03  0.18634675015E+03  0.98534750912E+03  0.10158050106E+04  0.12500000000E+03 0.  0.
         21    1    1    2  503  504 -0.50163006667E+02 -0.13618857013E+03  0.45979020645E+02  0.15224232070E+03  0.00000000000E+00 0.  1.
         21    1    1    2  504  501 -0.52793267934E+02 -0.50158180020E+02  0.10676755953E+03  0.12923731632E+03  0.00000000000E+00 0.  1.
<mgrwt>
<rscale>  4 0.23372455E+03</rscale>
<asrwt>0</asrwt>
<pdfrwt beam="1">  1       21 0.18733681E+00 0.23372455E+03</pdfrwt>
<pdfrwt beam="2">  1       21 0.12245428E-01 0.23372455E+03</pdfrwt>
<totfact> 0.89028948E+03</totfact>
</mgrwt>
</event>
<event>
 5    0  0.1829809E+000  0.3067640E+03  0.7546771E-02  0.1081907E+00
         21   -1    0    0  502  501  0.00000000000E+00  0.00000000000E+00  0.10764324955E+04  0.10764324955E+04  0.00000000000E+00 0.  1.
         21   -1    0    0  503  502 -0.00000000000E+00 -0.00000000000E+00 -0.84921349617E+02  0.84921349617E+02  0.00000000000E+00 0.  1.
         25    1    1    2    0    0  0.27623391167E+03  0.46626110052E+02  0.39645736764E+03  0.50128097157E+03  0.12500000000E+03 0.  0.
         21    1    1    2  503  504 -0.15134230513E+02 -0.16152182176E+02  0.59479137572E+02  0.63464208249E+02  0.00000000000E+00 0.  1.
         21    1    1    2  504  501 -0.26109968116E+03 -0.30473927875E+02  0.53557464062E+03  0.59660866526E+03  0.00000000000E+00 0.  1.
<mgrwt>
<rscale>  4 0.30676403E+03</rscale>
<asrwt>0</asrwt>
<pdfrwt beam="1">  1       21 0.16560499E+00 0.30676403E+03</pdfrwt>
<pdfrwt beam="2">  1       21 0.13064824E-01 0.30676403E+03</pdfrwt>
<totfact> 0.10759789E+04</totfact>
</mgrwt>
</event>
<event>
 5    0  0.1829809E+000  0.3344792E+03  0.7546771E-02  0.1069172E+00
         21   -1    0    0  502  501  0.00000000000E+00  0.00000000000E+00  0.68964016511E+03  0.68964016511E+03  0.00000000000E+00 0. -1.
         21   -1    0    0  503  502 -0.00000000000E+00 -0.00000000000E+00 -0.12215817305E+04  0.12215817305E+04  0.00000000000E+00 0. -1.
         25    1    1    2    0    0  0.27545026068E+03 -0.14372916177E+03  0.62310063647E+03  0.70739686260E+03  0.12500000000E+03 0.  0.
         21    1    1    2  503  504 -0.26901717429E+02 -0.25458187202E+02 -0.94914175699E+02  0.10188484895E+03  0.00000000000E+00 0. -1.
         21    1    1    2  504  501 -0.24854854325E+03  0.16918734897E+03 -0.10601280261E+04  0.11019401840E+04  0.00000000000E+00 0. -1.
<mgrwt>
<rscale>  4 0.33447920E+03</rscale>
<asrwt>0</asrwt>
<pdfrwt beam="1">  1       21 0.10609849E+00 0.33447920E+03</pdfrwt>
<pdfrwt beam="2">  1       21 0.18793565E+00 0.33447920E+03</pdfrwt>
<totfact> 0.98693971E+01</totfact>
</mgrwt>
</event>
<event>
 5    0  0.1829809E+000  0.1985406E+03  0.7546771E-02  0.1150976E+00
         21   -1    0    0  502  501  0.00000000000E+00  0.00000000000E+00  0.20649802917E+03  0.20649802917E+03  0.00000000000E+00 0.  1.
         21   -1    0    0  503  502 -0.00000000000E+00 -0.00000000000E+00 -0.36374300999E+03  0.36374300999E+03  0.00000000000E+00 0.  1.
         25    1    1    2    0    0  0.22678288365E+03  0.44144584776E+02 -0.41394507921E+02  0.26592804660E+03  0.12500000000E+03 0.  0.
         21    1    1    2  503  504 -0.12254134626E+03 -0.36594537327E+02  0.23595691544E+02  0.13004729280E+03  0.00000000000E+00 0.  1.
         21    1    1    2  504  501 -0.10424153739E+03 -0.75500474490E+01 -0.13944616445E+03  0.17426569976E+03  0.00000000000E+00 0.  1.
<mgrwt>
<rscale>  4 0.19854060E+03</rscale>
<asrwt>0</asrwt>
<pdfrwt beam="1">  1       21 0.31768928E-01 0.19854060E+03</pdfrwt>
<pdfrwt beam="2">  1       21 0.55960463E-01 0.19854060E+03</pdfrwt>
<totfact> 0.28551852E+04</totfact>
</mgrwt>
</event>
<event>
 5    0  0.1829809E+000  0.2766631E+03  0.7546771E-02  0.1097526E+00
         21   -1    0    0  502  501  0.00000000000E+00  0.00000000000E+00  0.14067118218E+04  0.14067118218E+04  0.00000000000E+00 0.  1.
         21   -1    0    0  503  502 -0.00000000000E+00 -0.00000000000E+00 -0.80531027312E+02  0.80531027312E+02  0.00000000000E+00 0.  1.
         25    1    1    2    0    0  0.22103318615E+03 -0.10982615616E+03  0.10995944897E+04  0.11338652899E+04  0.12500000000E+03 0.  0.
         21    1    1    2  503  504 -0.17011842340E+03  0.54733398896E+02  0.96208189629E+02  0.20295821906E+03  0.00000000000E+00 0.  1.
         21    1    1    2  504  501 -0.50914762754E+02  0.55092757260E+02  0.13037811524E+03  0.15041934018E+03  0.00000000000E+00 0.  1.
<mgrwt>
<rscale>  4 0.27666307E+03</rscale>
<asrwt>0</asrwt>
<pdfrwt beam="1">  1       21 0.21641719E+00 0.27666307E+03</pdfrwt>
<pdfrwt beam="2">  1       21 0.12389390E-01 0.27666307E+03</pdfrwt>
<totfact> 0.54836069E+03</totfact>
</mgrwt>
</event>
<event>
 5    0  0.1829809E+000  0.2701545E+03  0.7546771E-02  0.1101191E+00
         21   -1    0    0  502  501  0.00000000000E+00  0.00000000000E+00  0.58989272330E+03  0.58989272330E+03  0.00000000000E+00 0. -1.
         21   -1    0    0  503  502 -0.00000000000E+00 -0.00000000000E+00 -0.20846025616E+03  0.20846025616E+03  0.00000000000E+00 0.  1.
         25    1    1    2    0    0  0.22005353750E+03  0.55754155422E+01  0.33266201856E+03  0.41802351994E+03  0.12500000000E+03 0.  0.
         21    1    1    2  503  504  0.67238907225E+02 -0.22581491576E+00 -0.41652893218E+02  0.79095418013E+02  0.00000000000E+00 0.  1.
         21    1    1    2  504  501 -0.28729244473E+03 -0.53496006264E+01  0.90423341791E+02  0.30123404151E+03  0.00000000000E+00 0.  1.
<mgrwt>
<rscale>  4 0.27015450E+03</rscale>
<asrwt>0</asrwt>
<pdfrwt beam="1">  1       21 0.90752726E-01 0.27015450E+03</pdfrwt>
<pdfrwt beam="2">  1       21 0.32070809E-01 0.27015450E+03</pdfrwt>
<totfact> 0.91883102E+03</totfact>
</mgrwt>
</event>
<event>
 5    0  0.1829809E+000  0.2978092E+03  0.7546771E-02  0.1086341E+00
         21   -1    0    0  502  501  0.00000000000E+00  0.00000000000E+00  0.31540313163E+03  0.31540313163E+03  0.00000000000E+00 0.  1.
         21   -1    0    0  503  502 -0.00000000000E+00 -0.00000000000E+00 -0.26951490154E+03  0.26951490154E+03  0.00000000000E+00 0.  1.
         25    1    1    2    0    0 -0.21071116322E+03  0.16931069588E+03 -0.26132002375E+02  0.29895348734E+03  0.12500000000E+03 0.  0.
         21    1    1    2  503  504  0.42959656971E+02 -0.62091746976E+02  0.35982635080E+02  0.83640105194E+02  0.00000000000E+00 0.  1.
         21    1    1    2  504  501  0.16775150625E+03 -0.10721894891E+03  0.36037597389E+02  0.20232444063E+03  0.00000000000E+00 0.  1.
<mgrwt>
<rscale>  4 0.29780918E+03</rscale>
<asrwt>0</asrwt>
<pdfrwt beam="1">  1       21 0.48523559E-01 0.29780918E+03</pdfrwt>
<pdfrwt beam="2">  1       21 0.41463831E-01 0.29780918E+03</pdfrwt>
<totfact> 0.21579785E+04</totfact>
</mgrwt>
</event>
<event>
 5    0  0.1829809E+000  0.2981109E+03  0.7546771E-02  0.1086189E+00
         21   -1    0    0  502  501  0.00000000000E+00  0.00000000000E+00  0.62789700606E+03  0.62789700606E+03  0.00000000000E+00 0. -1.
         21   -1    0    0  503  502 -0.00000000000E+00 -0.00000000000E+00 -0.63803327503E+03  0.63803327503E+03  0.00000000000E+00 0. -1.
         25    1    1    2    0    0  0.10032321008E+03 -0.25135703952E+03  0.55825888196E+03  0.63286893357E+03  0.12500000000E+03 0.  0.
         21    1    1    2  503  504 -0.98147812667E+02  0.22000047023E+03 -0.44836188344E+03  0.50898092160E+03  0.00000000000E+00 0. -1.
         21    1    1    2  504  501 -0.21753974170E+01  0.31356569289E+02 -0.12003326750E+03  0.12408042592E+03  0.00000000000E+00 0. -1.
<mgrwt>
<rscale>  4 0.29811090E+03</rscale>
<asrwt>0</asrwt>
<pdfrwt beam="1">  1       21 0.96599539E-01 0.29811090E+03</pdfrwt>
<pdfrwt beam="2">  1       21 0.98158966E-01 0.29811090E+03</pdfrwt>
<totfact> 0.69844966E+02</totfact>
</mgrwt>
</event>
<event>
 5    0  0.1829809E+000  0.2410247E+03  0.7546771E-02  0.1119112E+00
         21   -1    0    0  502  501  0.00000000000E+00  0.00000000000E+00  0.14622561073E+03  0.14622561073E+03  0.00000000000E+00 0.  1.
         21   -1    0    0  503  502 -0.00000000000E+00 -0.00000000000E+00 -0.14534087812E+04  0.14534087812E+04  0.00000000000E+00 0. -1.
         25    1    1    2    0    0 -0.97518183342E+01  0.23362476519E+03 -0.14740477088E+02  0.26555208630E+03  0.12500000000E+03 0.  0.
         21    1    1    2  503  504  0.67146029218E+02 -0.93170802677E+02 -0.98043311682E+03  0.98713650741E+03  0.00000000000E+00 0. -1.
         21    1    1    2  504  501 -0.57394210884E+02 -0.14045396251E+03 -0.31200957655E+03  0.34694579820E+03  0.00000000000E+00 0. -1.
<mgrwt>
<rscale>  4 0.24102466E+03</rscale>
<asrwt>0</asrwt>
<pdfrwt beam="1">  1       21 0.22496247E-01 0.24102466E+03</pdfrwt>
<pdfrwt beam="2">  1       21 0.22360136E+00 0.24102466E+03</pdfrwt>
<totfact> 0.16856193E+03</totfact>
</mgrwt>
</event>
<event>
 5    0  0.1829809E+000  0.2824509E+03  0.7546771E-02  0.1094358E+00
         21   -1    0    0  502  501  0.00000000000E+00  0.00000000000E+00  0.59581809714E+03  0.59581809714E+03  0.00000000000E+00 0.  1.
         21   -1    0    0  503  502 -0.00000000000E+00 -0.00000000000E+00 -0.40120173688E+03  0.40120173688E+03  0.00000000000E+00 0.  1.
         25    1    1    2    0    0  0.10278437713E+03  0.23450085969E+03  0.50600240926E+03  0.58070536381E+03  0.12500000000E+03 0.  0.
         21    1    1    2  503  504 -0.90859319301E+01 -0.27231479962E+02  0.23421853527E+01  0.28802664672E+02  0.00000000000E+00 0. -1.
         21    1    1    2  504  501 -0.93698445199E+02 -0.20726937973E+03 -0.31372823435E+03  0.38751180554E+03  0.00000000000E+00 0.  1.
<mgrwt>
<rscale>  4 0.28245093E+03</rscale>
<asrwt>0</asrwt>
<pdfrwt beam="1">  1       21 0.91664323E-01 0.28245093E+03</pdfrwt>
<pdfrwt beam="2">  1       21 0.61723344E-01 0.28245093E+03</pdfrwt>
<totfact> 0.22960746E+03</totfact>
</mgrwt>
</event>
<event>
 5    0  0.1829809E+000  0.2180765E+03  0.7546771E-02  0.1135325E+00
         21   -1    0    0  502  501  0.00000000000E+00  0.00000000000E+00  0.92555326775E+03  0.92555326775E+03  0.00000000000E+00 0.  1.
         21   -1    0    0  503  502 -0.00000000000E+00 -0.00000000000E+00 -0.80646245172E+02  0.80646245172E+02  0.00000000000E+00 0. -1.
         25    1    1    2    0    0  0.11232472130E+02  0.20844264867E+03  0.67862392998E+03  0.72092298101E+03  0.12500000000E+03 0.  0.
         21    1    1    2  503  504  0.13856364372E+02 -0.17248506322E+03  0.84700551913E+02  0.19265845261E+03  0.00000000000E+00 0. -1.
         21    1    1    2  504  501 -0.25088836502E+02 -0.35957585445E+02  0.81582540686E+02  0.92618079298E+02  0.00000000000E+00 0. -1.
<mgrwt>
<rscale>  4 0.21807647E+03</rscale>
<asrwt>0</asrwt>
<pdfrwt beam="1">  1       21 0.14239280E+00 0.21807647E+03</pdfrwt>
<pdfrwt beam="2">  1       21 0.12407115E-01 0.21807647E+03</pdfrwt>
<totfact> 0.18618527E+04</totfact>
</mgrwt>
</event>
<event>
 5    0  0.1829809E+000  0.1843106E+03  0.7546771E-02  0.1163695E+00
         21   -1    0    0  502  501  0.00000000000E+00  0.00000000000E+00  0.70859336860E+02  0.70859336860E+02  0.00000000000E+00 0.  1.
         21   -1    0    0  503  502 -0.00000000000E+00 -0.00000000000E+00 -0.18363774931E+04  0.18363774931E+04  0.00000000000E+00 0. -1.
         25    1    1    2    0    0  0.11719196972E+03  0.16510028884E+03 -0.19464842623E+03  0.30741677407E+03  0.12500000000E+03 0.  0.
         21    1    1    2  503  504 -0.54289424365E+02 -0.12039629554E+03 -0.14526576172E+04  0.14586489511E+04  0.00000000000E+00 0. -1.
         21    1    1    2  504  501 -0.62902545353E+02 -0.44703993299E+02 -0.11821211277E+03  0.14117110482E+03  0.00000000000E+00 0. -1.
<mgrwt>
<rscale>  4 0.18431056E+03</rscale>
<asrwt>0</asrwt>
<pdfrwt beam="1">  1       21 0.10901437E-01 0.18431056E+03</pdfrwt>
<pdfrwt beam="2">  1       21 0.28251960E+00 0.18431056E+03</pdfrwt>
<totfact> 0.30273826E+03</totfact>
</mgrwt>
</event>
<event>
 5    0  0.1829809E+000  0.3094753E+03  0.7546771E-02  0.1080598E+00
         21   -1    0    0  502  501  0.00000000000E+00  0.00000000000E+00  0.36587864042E+03  0.36587864042E+03  0.00000000000E+00 0.  1.
         21   -1    0    0  503  502 -0.00000000000E+00 -0.00000000000E+00 -0.73725617509E+03  0.73725617509E+03  0.00000000000E+00 0. -1.
         25    1    1    2    0    0  0.28051574227E+03  0.17023781029E+02  0.21514426747E+03  0.37535442798E+03  0.12500000000E+03 0.  0.
         21    1    1    2  503  504 -0.28496397767E+03 -0.13304358595E+03 -0.43987995449E+03  0.54073971437E+03  0.00000000000E+00 0. -1.
         21    1    1    2  504  501  0.44482354015E+01  0.11601980492E+03 -0.14664184764E+03  0.18704067315E+03  0.00000000000E+00 0. -1.
<mgrwt>
<rscale>  4 0.30947527E+03</rscale>
<asrwt>0</asrwt>
<pdfrwt beam="1">  1       21 0.56289022E-01 0.30947527E+03</pdfrwt>
<pdfrwt beam="2">  1       21 0.11342403E+00 0.30947527E+03</pdfrwt>
<totfact> 0.16500488E+03</totfact>
</mgrwt>
</event>
<event>
 5    0  0.1829809E+000  0.2484542E+03  0.7546771E-02  0.1114286E+00
         21   -1    0    0  502  501  0.00000000000E+00  0.00000000000E+00  0.39597344902E+03  0.39597344902E+03  0.00000000000E+00 0. -1.
         21   -1    0    0  503  502 -0.00000000000E+00 -0.00000000000E+00 -0.26732369031E+03  0.26732369031E+03  0.00000000000E+00 0. -1.
         25    1    1    2    0    0 -0.20580475156E+03 -0.61228118260E+02  0.29733386076E+03  0.38747503530E+03  0.12500000000E+03 0.  0.
         21    1    1    2  503  504  0.16097642787E+03  0.63513213341E+02 -0.12807255854E+03  0.21529031295E+03  0.00000000000E+00 0. -1.
         21    1    1    2  504  501  0.44828323689E+02 -0.22850950803E+01 -0.40611543521E+02  0.60531791081E+02  0.00000000000E+00 0. -1.
<mgrwt>
<rscale>  4 0.24845418E+03</rscale>
<asrwt>0</asrwt>
<pdfrwt beam="1">  1       21 0.60918993E-01 0.24845418E+03</pdfrwt>
<pdfrwt beam="2">  1       21 0.41126721E-01 0.24845418E+03</pdfrwt>
<totfact> 0.13818574E+04</totfact>
</mgrwt>
</event>
<event>
 5    0  0.1829809E+000  0.2512675E+03  0.7546771E-02  0.1112506E+00
         21   -1    0    0  502  501  0.00000000000E+00  0.00000000000E+00  0.73242382334E+03  0.73242382334E+03  0.00000000000E+00 0. -1.
         21   -1    0    0  503  502 -0.00000000000E+00 -0.00000000000E+00 -0.33203909770E+03  0.33203909770E+03  0.00000000000E+00 0.  1.
         25    1    1    2    0    0 -0.17868177854E+03 -0.12717996266E+03  0.66212176312E+03  0.70861283511E+03  0.12500000000E+03 0.  0.
         21    1    1    2  503  504  0.14694803163E+03  0.14132918369E+03 -0.23981129790E+03  0.31476518353E+03  0.00000000000E+00 0.  1.
         21    1    1    2  504  501  0.31733746915E+02 -0.14149221028E+02 -0.21925739579E+02  0.41084902398E+02  0.00000000000E+00 0. -1.
<mgrwt>
<rscale>  4 0.25126750E+03</rscale>
<asrwt>0</asrwt>
<pdfrwt beam="1">  1       21 0.11268059E+00 0.25126750E+03</pdfrwt>
<pdfrwt beam="2">  1       21 0.51082938E-01 0.25126750E+03</pdfrwt>
<totfact> 0.21402640E+03</totfact>
</mgrwt>
</event>
<event>
 5    0  0.1829809E+000  0.2391640E+03  0.7546771E-02  0.1120351E+00
         21   -1    0    0  502  501  0.00000000000E+00  0.00000000000E+00  0.52886288716E+03  0.52886288716E+03  0.00000000000E+00 0.  1.
         21   -1    0    0  503  502 -0.00000000000E+00 -0.00000000000E+00 -0.99621775045E+02  0.99621775045E+02  0.00000000000E+00 0.  1.
         25    1    1    2    0    0 -0.20386252122E+03  0.38086779127E+01  0.26306612619E+03  0.35553230561E+03  0.12500000000E+03 0.  0.
         21    1    1    2  503  504  0.67672285465E+02 -0.20267855786E+02  0.95057597960E+02  0.11843255941E+03  0.00000000000E+00 0.  1.
         21    1    1    2  504  501  0.13619023576E+03  0.16459177873E+02  0.71117387975E+02  0.15451979719E+03  0.00000000000E+00 0.  1.
<mgrwt>
<rscale>  4 0.23916403E+03</rscale>
<asrwt>0</asrwt>
<pdfrwt beam="1">  1       21 0.81363519E-01 0.23916403E+03</pdfrwt>
<pdfrwt beam="2">  1       21 0.15326427E-01 0.23916403E+03</pdfrwt>
<totfact> 0.48851696E+04</totfact>
</mgrwt>
</event>
<event>
 5    0  0.1829809E+000  0.2578797E+03  0.7546771E-02  0.1108424E+00
         21   -1    0    0  502  501  0.00000000000E+00  0.00000000000E+00  0.85089383775E+02  0.85089383775E+02  0.00000000000E+00 0. -1.
         21   -1    0    0  503  502 -0.00000000000E+00 -0.00000000000E+00 -0.74647803013E+03  0.74647803013E+03  0.00000000000E+00 0. -1.
         25    1    1    2    0    0  0.93058118886E+02  0.20546810835E+03 -0.23880398998E+03  0.35146735648E+03  0.12500000000E+03 0.  0.
         21    1    1    2  503  504 -0.16101285394E+02 -0.15362958614E+02 -0.51706593576E+02  0.56292483583E+02  0.00000000000E+00 0. -1.
         21    1    1    2  504  501 -0.76956833493E+02 -0.19010514974E+03 -0.37087806280E+03  0.42380757384E+03  0.00000000000E+00 0. -1.
<mgrwt>
<rscale>  4 0.25787973E+03</rscale>
<asrwt>0</asrwt>
<pdfrwt beam="1">  1       21 0.13090674E-01 0.25787973E+03</pdfrwt>
<pdfrwt beam="2">  1       21 0.11484278E+00 0.25787973E+03</pdfrwt>
<totfact> 0.28526703E+04</totfact>
</mgrwt>
</event>
<event>
 5    0  0.1829809E+000  0.2477246E+03  0.7546771E-02  0.1114751E+00
         21   -1    0    0  502  501  0.00000000000E+00  0.00000000000E+00  0.39963752285E+02  0.39963752285E+02  0.00000000000E+00 0.  1.
         21   -1    0    0  503  502 -0.00000000000E+00 -0.00000000000E+00 -0.19421983792E+04  0.19421983792E+04  0.00000000000E+00 0. -1.
         25    1    1    2    0    0 -0.44537000698E+01 -0.21382847772E+03 -0.45362508532E+03  0.51685894726E+03  0.12500000000E+03 0.  0.
         21    1    1    2  503  504 -0.40017759747E+01  0.12691120744E+03 -0.10211949874E+04  0.10290586334E+04  0.00000000000E+00 0. -1.
         21    1    1    2  504  501  0.84554760445E+01  0.86917270274E+02 -0.42741455424E+03  0.43624455082E+03  0.00000000000E+00 0. -1.
<mgrwt>
<rscale>  4 0.24772455E+03</rscale>
<asrwt>0</asrwt>
<pdfrwt beam="1">  1       21 0.61482693E-02 0.24772455E+03</pdfrwt>
<pdfrwt beam="2">  1       21 0.29879976E+00 0.24772455E+03</pdfrwt>
<totfact> 0.62060807E+03</totfact>
</mgrwt>
</event>
<event>
 5    0  0.1829809E+000  0.2463944E+03  0.7546771E-02  0.1115605E+00
         21   -1    0    0  502  501  0.00000000000E+00  0.00000000000E+00  0.94960441752E+02  0.94960441752E+02  0.00000000000E+00 0.  1.
         21   -1    0    0  503  502 -0.00000000000E+00 -0.00000000000E+00 -0.76854817278E+03  0.76854817278E+03  0.00000000000E+00 0.  1.
         25    1    1    2    0    0  0.27219229157E+02  0.21058089603E+03 -0.13282081168E+03  0.27991350133E+03  0.12500000000E+03 0.  0.
         21    1    1    2  503  504  0.11522135065E+02 -0.16810793574E+02 -0.33678523367E+02  0.39365026524E+02  0.00000000000E+00 0.  1.
         21    1    1    2  504  501 -0.38741364223E+02 -0.19377010246E+03 -0.50708839598E+03  0.54423008668E+03  0.00000000000E+00 0.  1.
<mgrwt>
<rscale>  4 0.24639440E+03</rscale>
<asrwt>0</asrwt>
<pdfrwt beam="1">  1       21 0.14609299E-01 0.24639440E+03</pdfrwt>
<pdfrwt beam="2">  1       21 0.11823818E+00 0.24639440E+03</pdfrwt>
<totfact> 0.21862160E+04</totfact>
</mgrwt>
</event>
<event>
 5    0  0.1829809E+000  0.3762431E+03  0.7546771E-02  0.1052331E+00
         21   -1    0    0  502  501  0.00000000000E+00  0.00000000000E+00  0.45099668822E+03  0.45099668822E+03  0.00000000000E+00 0. -1.
         21   -1    0    0  503  502 -0.00000000000E+00 -0.00000000000E+00 -0.86928586139E+03  0.86928586139E+03  0.00000000000E+00 0. -1.
         25    1    1    2    0    0 -0.22928855196E+03  0.27085172800E+03  0.32267012551E+03  0.49565603852E+03  0.12500000000E+03 0.  0.
         21    1    1    2  503  504  0.11248485237E+01 -0.24122633013E+02 -0.73064601594E+02  0.76951950682E+02  0.00000000000E+00 0.  1.
         21    1    1    2  504  501  0.22816370343E+03 -0.24672909499E+03 -0.66789469709E+03  0.74767456041E+03  0.00000000000E+00 0. -1.
<mgrwt>
<rscale>  4 0.37624314E+03</rscale>
<asrwt>0</asrwt>
<pdfrwt beam="1">  1       21 0.69384106E-01 0.37624314E+03</pdfrwt>
<pdfrwt beam="2">  1       21 0.13373629E+00 0.37624314E+03</pdfrwt>
<totfact> 0.66148581E+02</totfact>
</mgrwt>
</event>
<event>
 5    0  0.1829809E+000  0.3158481E+03  0.7546771E-02  0.1077576E+00
         21   -1    0    0  502  501  0.00000000000E+00  0.00000000000E+00  0.51745328778E+03  0.51745328778E+03  0.00000000000E+00 0. -1.
         21   -1    0    0  503  502 -0.00000000000E+00 -0.00000000000E+00 -0.31240205121E+03  0.31240205121E+03  0.00000000000E+00 0. -1.
         25    1    1    2    0    0 -0.28146174774E+03  0.70102041699E+02  0.37117589903E+03  0.48737209575E+03  0.12500000000E+03 0.  0.
         21    1    1    2  503  504  0.13260500241E+03  0.47732385655E+01 -0.67806393397E+02  0.14901200440E+03  0.00000000000E+00 0. -1.
         21    1    1    2  504  501  0.14885674533E+03 -0.74875280265E+02 -0.98318269066E+02  0.19347123883E+03  0.00000000000E+00 0. -1.
<mgrwt>
<rscale>  4 0.31584808E+03</rscale>
<asrwt>0</asrwt>
<pdfrwt beam="1">  1       21 0.79608198E-01 0.31584808E+03</pdfrwt>
<pdfrwt beam="2">  1       21 0.48061854E-01 0.31584808E+03</pdfrwt>
<totfact> 0.53366780E+03</totfact>
</mgrwt>
</event>
<event>
 5    0  0.1829809E+000  0.2320564E+03  0.7546771E-02  0.1125201E+00
         21   -1    0    0  502  501  0.00000000000E+00  0.00000000000E+00  0.30857171754E+03  0.30857171754E+03  0.00000000000E+00 0.  1.
         21   -1    0    0  503  502 -0.00000000000E+00 -0.00000000000E+00 -0.18836775006E+03  0.18836775006E+03  0.00000000000E+00 0.  1.
         25    1    1    2    0    0  0.20132261927E+03  0.63242818792E+01 -0.19340539983E+02  0.23784417180E+03  0.12500000000E+03 0.  0.
         21    1    1    2  503  504 -0.14861039075E+02  0.14131071202E+02  0.44087456871E+02  0.48623466650E+02  0.00000000000E+00 0. -1.
         21    1    1    2  504  501 -0.18646158020E+03 -0.20455353081E+02  0.95457050586E+02  0.21047182915E+03  0.00000000000E+00 0.  1.
<mgrwt>
<rscale>  4 0.23205638E+03</rscale>
<asrwt>0</asrwt>
<pdfrwt beam="1">  1       21 0.47472572E-01 0.23205638E+03</pdfrwt>
<pdfrwt beam="2">  1       21 0.28979654E-01 0.23205638E+03</pdfrwt>
<totfact> 0.47488881E+04</totfact>
</mgrwt>
</event>
<event>
 5    0  0.1829809E+000  0.2409791E+03  0.7546771E-02  0.1119142E+00
         21   -1    0    0  502  501  0.00000000000E+00  0.00000000000E+00  0.79905626138E+03  0.79905626138E+03  0.00000000000E+00 0. -1.
         21   -1    0    0  503  502 -0.00000000000E+00 -0.00000000000E+00 -0.86708640250E+02  0.86708640250E+02  0.00000000000E+00 0. -1.
         25    1    1    2    0    0  0.14479959089E+03  0.16260275086E+03  0.49919591571E+03  0.55877378104E+03  0.12500000000E+03 0.  0.
         21    1    1    2  503  504 -0.10833441077E+03 -0.15924478421E+03  0.21702906599E+03  0.29016695426E+03  0.00000000000E+00 0. -1.
         21    1    1    2  504  501 -0.36465180115E+02 -0.33579666445E+01 -0.38773605828E+01  0.36824166330E+02  0.00000000000E+00 0. -1.
<mgrwt>
<rscale>  4 0.24097912E+03</rscale>
<asrwt>0</asrwt>
<pdfrwt beam="1">  1       21 0.12293173E+00 0.24097912E+03</pdfrwt>
<pdfrwt beam="2">  1       21 0.13339791E-01 0.24097912E+03</pdfrwt>
<totfact> 0.23467747E+04</totfact>
</mgrwt>
</event>
<event>
 5    0  0.1829809E+000  0.3008952E+03  0.7546771E-02  0.1084794E+00
         21   -1    0    0  502  501  0.00000000000E+00  0.00000000000E+00  0.11288110972E+03  0.11288110972E+03  0.00000000000E+00 0. -1.
         21   -1    0    0  503  502 -0.00000000000E+00 -0.00000000000E+00 -0.17660416549E+04  0.17660416549E+04  0.00000000000E+00 0. -1.
         25    1    1    2    0    0  0.20489317475E+03  0.23876373158E+03 -0.27671765740E+03  0.43724935048E+03  0.12500000000E+03 0.  0.
         21    1    1    2  503  504 -0.27727085072E+01 -0.12942577752E+03 -0.93577320963E+03  0.94468524899E+03  0.00000000000E+00 0. -1.
         21    1    1    2  504  501 -0.20212046624E+03 -0.10933795406E+03 -0.44066967818E+03  0.49698816519E+03  0.00000000000E+00 0. -1.
<mgrwt>
<rscale>  4 0.30089522E+03</rscale>
<asrwt>0</asrwt>
<pdfrwt beam="1">  1       21 0.17366326E-01 0.30089522E+03</pdfrwt>
<pdfrwt beam="2">  1       21 0.27169869E+00 0.30089522E+03</pdfrwt>
<totfact> 0.13393571E+03</totfact>
</mgrwt>
</event>
<event>
 5    0  0.1829809E+000  0.2968905E+03  0.7546771E-02  0.1086805E+00
         21   -1    0    0  502  501  0.00000000000E+00  0.00000000000E+00  0.91655071684E+02  0.91655071684E+02  0.00000000000E+00 0. -1.
         21   -1    0    0  503  502 -0.00000000000E+00 -0.00000000000E+00 -0.15905134724E+04  0.15905134724E+04  0.00000000000E+00 0. -1.
         25    1    1    2    0    0  0.47321314895E+02  0.26510316305E+03 -0.21480389407E+03  0.36644877788E+03  0.12500000000E+03 0.  0.
         21    1    1    2  503  504 -0.59497766469E+02 -0.14685752214E+03 -0.56053477458E+03  0.58250008544E+03  0.00000000000E+00 0. -1.
         21    1    1    2  504  501  0.12176451574E+02 -0.11824564092E+03 -0.72351973203E+03  0.73321968073E+03  0.00000000000E+00 0. -1.
<mgrwt>
<rscale>  4 0.29689054E+03</rscale>
<asrwt>0</asrwt>
<pdfrwt beam="1">  1       21 0.14100781E-01 0.29689054E+03</pdfrwt>
<pdfrwt beam="2">  1       21 0.24469437E+00 0.29689054E+03</pdfrwt>
<totfact> 0.28621463E+03</totfact>
</mgrwt>
</event>
<event>
 5    0  0.1829809E+000  0.3355523E+03  0.7546771E-02  0.1068706E+00
         21   -1    0    0  502  501  0.00000000000E+00  0.00000000000E+00  0.33647929138E+03  0.33647929138E+03  0.00000000000E+00 0. -1.
         21   -1    0    0  503  502 -0.00000000000E+00 -0.00000000000E+00 -0.42597016755E+03  0.42597016755E+03  0.00000000000E+00 0. -1.
         25    1    1    2    0    0 -0.94931596795E+02  0.31896243510E+03  0.43748707018E+02  0.35817313193E+03  0.12500000000E+03 0.  0.
         21    1    1    2  503  504 -0.45652646143E+02 -0.50399537239E+02  0.10469299872E+02  0.68803224442E+02  0.00000000000E+00 0. -1.
         21    1    1    2  504  501  0.14058424294E+03 -0.26856289786E+03 -0.14370888305E+03  0.33547310255E+03  0.00000000000E+00 0. -1.
<mgrwt>
<rscale>  4 0.33555231E+03</rscale>
<asrwt>0</asrwt>
<pdfrwt beam="1">  1       21 0.51766045E-01 0.33555231E+03</pdfrwt>
<pdfrwt beam="2">  1       21 0.65533872E-01 0.33555231E+03</pdfrwt>
<totfact> 0.70025941E+03</totfact>
</mgrwt>
</event>
<event>
 5    0  0.1829809E+000  0.2464189E+03  0.7546771E-02  0.1115589E+00
         21   -1    0    0  502  501  0.00000000000E+00  0.00000000000E+00  0.50083368656E+03  0.50083368656E+03  0.00000000000E+00 0. -1.
         21   -1    0    0  503  502 -0.00000000000E+00 -0.00000000000E+00 -0.18491133249E+03  0.18491133249E+03  0.00000000000E+00 0.  1.
         25    1    1    2    0    0  0.15437760487E+03  0.14582462422E+03  0.37751903100E+03  0.45082467178E+03  0.12500000000E+03 0.  0.
         21    1    1    2  503  504  0.19870946731E+00 -0.37598873752E+02 -0.15536490731E+02  0.40682887522E+02  0.00000000000E+00 0.  1.
         21    1    1    2  504  501 -0.15457631434E+03 -0.10822575047E+03 -0.46060186197E+02  0.19423745976E+03  0.00000000000E+00 0.  1.
<mgrwt>
<rscale>  4 0.24641888E+03</rscale>
<asrwt>0</asrwt>
<pdfrwt beam="1">  1       21 0.77051336E-01 0.24641888E+03</pdfrwt>
<pdfrwt beam="2">  1       21 0.28447898E-01 0.24641888E+03</pdfrwt>
<totfact> 0.17147882E+04</totfact>
</mgrwt>
</event>
<event>
 5    0  0.1829809E+000  0.3953137E+03  0.7546771E-02  0.1045415E+00
         21   -1    0    0  502  501  0.00000000000E+00  0.00000000000E+00  0.59918772357E+03  0.59918772357E+03  0.00000000000E+00 0.  1.
         21   -1    0    0  503  502 -0.00000000000E+00 -0.00000000000E+00 -0.28762767733E+03  0.28762767733E+03  0.00000000000E+00 0.  1.
         25    1    1    2    0    0 -0.35654444092E+03  0.11629282134E+03  0.30618306658E+03  0.50002102847E+03  0.12500000000E+03 0.  0.
         21    1    1    2  503  504  0.32976562495E+03 -0.12165097146E+03 -0.16391064980E+02  0.35187070532E+03  0.00000000000E+00 0.  1.
         21    1    1    2  504  501  0.26778815973E+02  0.53581501205E+01  0.21768044633E+02  0.34923667115E+02  0.00000000000E+00 0.  1.
<mgrwt>
<rscale>  4 0.39531375E+03</rscale>
<asrwt>0</asrwt>
<pdfrwt beam="1">  1       21 0.92182726E-01 0.39531375E+03</pdfrwt>
<pdfrwt beam="2">  1       21 0.44250412E-01 0.39531375E+03</pdfrwt>
<totfact> 0.43560364E+03</totfact>
</mgrwt>
</event>
<event>
 5    0  0.1829809E+000  0.2490857E+03  0.7546771E-02  0.1113884E+00
         21   -1    0    0  502  501  0.00000000000E+00  0.00000000000E+00  0.18170920973E+03  0.18170920973E+03  0.00000000000E+00 0.  1.
         21   -1    0    0  503  502 -0.00000000000E+00 -0.00000000000E+00 -0.39742222885E+03  0.39742222885E+03  0.00000000000E+00 0.  1.
         25    1    1    2    0    0 -0.43131358360E+02  0.21108850431E+03 -0.24851146078E+03  0.35185453936E+03  0.12500000000E+03 0.  0.
         21    1    1    2  503  504  0.24852976771E+02 -0.31901195276E+02 -0.11004310245E+02  0.41910041260E+02  0.00000000000E+00 0.  1.
         21    1    1    2  504  501  0.18278381588E+02 -0.17918730904E+03  0.43802751916E+02  0.18536685796E+03  0.00000000000E+00 0.  1.
<mgrwt>
<rscale>  4 0.24908567E+03</rscale>
<asrwt>0</asrwt>
<pdfrwt beam="1">  1       21 0.27955263E-01 0.24908567E+03</pdfrwt>
<pdfrwt beam="2">  1       21 0.61141881E-01 0.24908567E+03</pdfrwt>
<totfact> 0.29554935E+04</totfact>
</mgrwt>
</event>
<event>
 5    0  0.1829809E+000  0.3450026E+03  0.7546771E-02  0.1064685E+00
         21   -1    0    0  502  501  0.00000000000E+00  0.00000000000E+00  0.10590846109E+04  0.10590846109E+04  0.00000000000E+00 0. -1.
         21   -1    0    0  503  502 -0.00000000000E+00 -0.00000000000E+00 -0.29578604806E+03  0.29578604806E+03  0.00000000000E+00 0. -1.
         25    1    1    2    0    0 -0.55618277792E+02  0.36730708253E+03  0.77639516440E+03  0.86972543771E+03  0.12500000000E+03 0.  0.
         21    1    1    2  503  504  0.53434323742E+02 -0.31080591964E+03 -0.14088635148E+03  0.34540485039E+03  0.00000000000E+00 0. -1.
         21    1    1    2  504  501  0.21839540499E+01 -0.56501162888E+02  0.12778974995E+03  0.13974037089E+03  0.00000000000E+00 0. -1.
<mgrwt>
<rscale>  4 0.34500258E+03</rscale>
<asrwt>0</asrwt>
<pdfrwt beam="1">  1       21 0.16293609E+00 0.34500258E+03</pdfrwt>
<pdfrwt beam="2">  1       21 0.45505546E-01 0.34500258E+03</pdfrwt>
<totfact> 0.98429798E+02</totfact>
</mgrwt>
</event>
<event>
 5    0  0.1829809E+000  0.2542706E+03  0.7546771E-02  0.1110635E+00
         21   -1    0    0  502  501  0.00000000000E+00  0.00000000000E+00  0.35865549691E+03  0.35865549691E+03  0.00000000000E+00 0.  1.
         21   -1    0    0  503  502 -0.00000000000E+00 -0.00000000000E+00 -0.33166777332E+03  0.33166777332E+03  0.00000000000E+00 0.  1.
         25    1    1    2    0    0  0.14315321344E+03  0.17844387267E+03  0.24971526280E+03  0.36099552724E+03  0.12500000000E+03 0.  0.
         21    1    1    2  503  504 -0.17637547460E+02 -0.27763686092E+02 -0.80831003629E+02  0.87267155869E+02  0.00000000000E+00 0.  1.
         21    1    1    2  504  501 -0.12551566598E+03 -0.15068018658E+03 -0.14189653557E+03  0.24206058713E+03  0.00000000000E+00 0.  1.
<mgrwt>
<rscale>  4 0.25427062E+03</rscale>
<asrwt>0</asrwt>
<pdfrwt beam="1">  1       21 0.55177769E-01 0.25427062E+03</pdfrwt>
<pdfrwt beam="2">  1       21 0.51025811E-01 0.25427062E+03</pdfrwt>
<totfact> 0.10898932E+04</totfact>
</mgrwt>
</event>
<event>
 5    0  0.1829809E+000  0.2682422E+03  0.7546771E-02  0.1102290E+00
         21   -1    0    0  502  501  0.00000000000E+00  0.00000000000E+00  0.43916933102E+03  0.43916933102E+03  0.00000000000E+00 0. -1.
         21   -1    0    0  503  502 -0.00000000000E+00 -0.00000000000E+00 -0.18578030375E+03  0.18578030375E+03  0.00000000000E+00 0.  1.
         25    1    1    2    0    0 -0.14853816558E+03  0.18510881507E+03  0.27581035697E+03  0.38474044896E+03  0.12500000000E+03 0.  0.
         21    1    1    2  503  504  0.13592426608E+03 -0.16572356368E+03 -0.28689227302E+02  0.21624702873E+03  0.00000000000E+00 0.  1.
         21    1    1    2  504  501  0.12613899496E+02 -0.19385251390E+02  0.62678975925E+01  0.23962157085E+02  0.00000000000E+00 0.  1.
<mgrwt>
<rscale>  4 0.26824217E+03</rscale>
<asrwt>0</asrwt>
<pdfrwt beam="1">  1       21 0.67564512E-01 0.26824217E+03</pdfrwt>
<pdfrwt beam="2">  1       21 0.28581585E-01 0.26824217E+03</pdfrwt>
<totfact> 0.22554458E+04</totfact>
</mgrwt>
</event>
<event>
 5    0  0.1829809E+000  0.2488428E+03  0.7546771E-02  0.1114038E+00
         21   -1    0    0  502  501  0.00000000000E+00  0.00000000000E+00  0.15230679290E+03  0.15230679290E+03  0.00000000000E+00 0. -1.
         21   -1    0    0  503  502 -0.00000000000E+00 -0.00000000000E+00 -0.48374525538E+03  0.48374525538E+03  0.00000000000E+00 0.  1.
         25    1    1    2    0    0 -0.21295905358E+03 -0.30760264377E+02 -0.12878952431E+02  0.24917588122E+03  0.12500000000E+03 0.  0.
         21    1    1    2  503  504  0.27898749798E+02  0.15772394684E+01 -0.19847475940E+02  0.34274629477E+02  0.00000000000E+00 0.  1.
         21    1    1    2  504  501  0.18506030378E+03  0.29183024908E+02 -0.29871203411E+03  0.35260153758E+03  0.00000000000E+00 0.  1.
<mgrwt>
<rscale>  4 0.24884283E+03</rscale>
<asrwt>0</asrwt>
<pdfrwt beam="1">  1       21 0.23431815E-01 0.24884283E+03</pdfrwt>
<pdfrwt beam="2">  1       21 0.74422346E-01 0.24884283E+03</pdfrwt>
<totfact> 0.26917660E+04</totfact>
</mgrwt>
</event>
<event>
 5    0  0.1829809E+000  0.2635719E+03  0.7546771E-02  0.1105016E+00
         21   -1    0    0  502  501  0.00000000000E+00  0.00000000000E+00  0.20271180809E+03  0.20271180809E+03  0.00000000000E+00 0. -1.
         21   -1    0    0  503  502 -0.00000000000E+00 -0.00000000000E+00 -0.56701506009E+03  0.56701506009E+03  0.00000000000E+00 0. -1.
         25    1    1    2    0    0  0.13455859565E+03 -0.19103146990E+03  0.10277508430E+02  0.26519740823E+03  0.12500000000E+03 0.  0.
         21    1    1    2  503  504  0.65569066442E+02  0.59075600116E+02 -0.51344029143E+02  0.10210503578E+03  0.00000000000E+00 0. -1.
         21    1    1    2  504  501 -0.20012766209E+03  0.13195586978E+03 -0.32323673129E+03  0.40242442416E+03  0.00000000000E+00 0. -1.
<mgrwt>
<rscale>  4 0.26357193E+03</rscale>
<asrwt>0</asrwt>
<pdfrwt beam="1">  1       21 0.31186433E-01 0.26357193E+03</pdfrwt>
<pdfrwt beam="2">  1       21 0.87233085E-01 0.26357193E+03</pdfrwt>
<totfact> 0.10684638E+04</totfact>
</mgrwt>
</event>
<event>
 5    0  0.1829809E+000  0.2496137E+03  0.7546771E-02  0.1113549E+00
         21   -1    0    0  502  501  0.00000000000E+00  0.00000000000E+00  0.17212432067E+03  0.17212432067E+03  0.00000000000E+00 0.  1.
         21   -1    0    0  503  502 -0.00000000000E+00 -0.00000000000E+00 -0.10273851420E+04  0.10273851420E+04  0.00000000000E+00 0.  1.
         25    1    1    2    0    0  0.21754553312E+03 -0.23533739892E+02  0.55235995482E+02  0.25798432334E+03  0.12500000000E+03 0.  0.
         21    1    1    2  503  504 -0.18945308041E+03  0.34861523466E+02 -0.86932025956E+03  0.89040749614E+03  0.00000000000E+00 0.  1.
         21    1    1    2  504  501 -0.28092452710E+02 -0.11327783575E+02 -0.41176557285E+02  0.51117643235E+02  0.00000000000E+00 0. -1.
<mgrwt>
<rscale>  4 0.24961371E+03</rscale>
<asrwt>0</asrwt>
<pdfrwt beam="1">  1       21 0.26480665E-01 0.24961371E+03</pdfrwt>
<pdfrwt beam="2">  1       21 0.15805925E+00 0.24961371E+03</pdfrwt>
<totfact> 0.33696074E+03</totfact>
</mgrwt>
</event>
<event>
 5    0  0.1829809E+000  0.2473151E+03  0.7546771E-02  0.1115013E+00
         21   -1    0    0  502  501  0.00000000000E+00  0.00000000000E+00  0.18950728341E+03  0.18950728341E+03  0.00000000000E+00 0. -1.
         21   -1    0    0  503  502 -0.00000000000E+00 -0.00000000000E+00 -0.48701819210E+03  0.48701819210E+03  0.00000000000E+00 0. -1.
         25    1    1    2    0    0  0.16008782270E+02  0.23500943209E+03 -0.18688669400E+03  0.32563376771E+03  0.12500000000E+03 0.  0.
         21    1    1    2  503  504  0.97039907748E+02 -0.18146200033E+03 -0.49413920096E+02  0.21162924363E+03  0.00000000000E+00 0. -1.
         21    1    1    2  504  501 -0.11304869002E+03 -0.53547431761E+02 -0.61210294588E+02  0.13926246417E+03  0.00000000000E+00 0. -1.
<mgrwt>
<rscale>  4 0.24731506E+03</rscale>
<asrwt>0</asrwt>
<pdfrwt beam="1">  1       21 0.29154968E-01 0.24731506E+03</pdfrwt>
<pdfrwt beam="2">  1       21 0.74925873E-01 0.24731506E+03</pdfrwt>
<totfact> 0.17401065E+04</totfact>
</mgrwt>
</event>
<event>
 5    0  0.1829809E+000  0.3732524E+03  0.7546771E-02  0.1053456E+00
         21   -1    0    0  502  501  0.00000000000E+00  0.00000000000E+00  0.14747699602E+03  0.14747699602E+03  0.00000000000E+00 0.  1.
         21   -1    0    0  503  502 -0.00000000000E+00 -0.00000000000E+00 -0.93325222956E+03  0.93325222956E+03  0.00000000000E+00 0.  1.
         25    1    1    2    0    0  0.19330782373E+03 -0.29381020302E+03 -0.35247551845E+03  0.51337738675E+03  0.12500000000E+03 0.  0.
         21    1    1    2  503  504 -0.11404360880E+03  0.14660830041E+03 -0.15150826431E+03  0.23969708511E+03  0.00000000000E+00 0.  1.
         21    1    1    2  504  501 -0.79264214936E+02  0.14720190261E+03 -0.28179145079E+03  0.32765475373E+03  0.00000000000E+00 0.  1.
<mgrwt>
<rscale>  4 0.37325239E+03</rscale>
<asrwt>0</asrwt>
<pdfrwt beam="1">  1       21 0.22688769E-01 0.37325239E+03</pdfrwt>
<pdfrwt beam="2">  1       21 0.14357727E+00 0.37325239E+03</pdfrwt>
<totfact> 0.54903533E+03</totfact>
</mgrwt>
</event>
<event>
 5    0  0.1829809E+000  0.2549510E+03  0.7546771E-02  0.1110215E+00
         21   -1    0    0  502  501  0.00000000000E+00  0.00000000000E+00  0.84121665431E+03  0.84121665431E+03  0.00000000000E+00 0. -1.
         21   -1    0    0  503  502 -0.00000000000E+00 -0.00000000000E+00 -0.80964413887E+02  0.80964413887E+02  0.00000000000E+00 0. -1.
         25    1    1    2    0    0  0.13424157181E+03 -0.19602459487E+03  0.35709344257E+03  0.44675179700E+03  0.12500000000E+03 0.  0.
         21    1    1    2  503  504 -0.11529009899E+03  0.17911815289E+03  0.39496180764E+03  0.44874263126E+03  0.00000000000E+00 0. -1.
         21    1    1    2  504  501 -0.18951472824E+02  0.16906441977E+02  0.81969902219E+01  0.26686639939E+02  0.00000000000E+00 0. -1.
<mgrwt>
<rscale>  4 0.25495102E+03</rscale>
<asrwt>0</asrwt>
<pdfrwt beam="1">  1       21 0.12941794E+00 0.25495102E+03</pdfrwt>
<pdfrwt beam="2">  1       21 0.12456064E-01 0.25495102E+03</pdfrwt>
<totfact> 0.23163476E+04</totfact>
</mgrwt>
</event>
<event>
 5    0  0.1829809E+000  0.2587580E+03  0.7546771E-02  0.1107892E+00
         21   -1    0    0  502  501  0.00000000000E+00  0.00000000000E+00  0.70367011492E+03  0.70367011492E+03  0.00000000000E+00 0. -1.
         21   -1    0    0  503  502 -0.00000000000E+00 -0.00000000000E+00 -0.21510644951E+03  0.21510644951E+03  0.00000000000E+00 0.  1.
         25    1    1    2    0    0 -0.16618157694E+03  0.15924290410E+03  0.56247954417E+03  0.62046986763E+03  0.12500000000E+03 0.  0.
         21    1    1    2  503  504 -0.28877431860E+02 -0.64260490984E+02 -0.48259406303E+01  0.70615908089E+02  0.00000000000E+00 0.  1.
         21    1    1    2  504  501  0.19505900880E+03 -0.94982413112E+02 -0.69089938134E+02  0.22769078872E+03  0.00000000000E+00 0.  1.
<mgrwt>
<rscale>  4 0.25875804E+03</rscale>
<asrwt>0</asrwt>
<pdfrwt beam="1">  1       21 0.10825694E+00 0.25875804E+03</pdfrwt>
<pdfrwt beam="2">  1       21 0.33093300E-01 0.25875804E+03</pdfrwt>
<totfact> 0.57013464E+03</totfact>
</mgrwt>
</event>
<event>
 5    0  0.1829809E+000  0.2419580E+03  0.7546771E-02  0.1118495E+00
         21   -1    0    0  502  501  0.00000000000E+00  0.00000000000E+00  0.17262309516E+04  0.17262309516E+04  0.00000000000E+00 0. -1.
         21   -1    0    0  503  502 -0.00000000000E+00 -0.00000000000E+00 -0.25803500690E+03  0.25803500690E+03  0.00000000000E+00 0.  1.
         25    1    1    2    0    0 -0.69512270913E+02  0.19445712779E+03  0.16467608640E+04  0.16643592982E+04  0.12500000000E+03 0.  0.
         21    1    1    2  503  504  0.10561971116E+03 -0.19757457622E+03 -0.12904602643E+03  0.25854228569E+03  0.00000000000E+00 0.  1.
         21    1    1    2  504  501 -0.36107440249E+02  0.31174484281E+01 -0.49518892838E+02  0.61364374632E+02  0.00000000000E+00 0.  1.
<mgrwt>
<rscale>  4 0.24195804E+03</rscale>
<asrwt>0</asrwt>
<pdfrwt beam="1">  1       21 0.26557399E+00 0.24195804E+03</pdfrwt>
<pdfrwt beam="2">  1       21 0.39697694E-01 0.24195804E+03</pdfrwt>
<totfact> 0.30979565E+02</totfact>
</mgrwt>
</event>
<event>
 5    0  0.1829809E+000  0.4011333E+03  0.7546771E-02  0.1043388E+00
         21   -1    0    0  502  501  0.00000000000E+00  0.00000000000E+00  0.63094873505E+03  0.63094873505E+03  0.00000000000E+00 0. -1.
         21   -1    0    0  503  502 -0.00000000000E+00 -0.00000000000E+00 -0.54478715263E+03  0.54478715263E+03  0.00000000000E+00 0.  1.
         25    1    1    2    0    0 -0.27708350087E+03  0.28669674458E+03  0.43202687645E+03  0.60103453460E+03  0.12500000000E+03 0.  0.
         21    1    1    2  503  504  0.13086227355E+03 -0.71789173404E+01 -0.44437492264E+02  0.13838772421E+03  0.00000000000E+00 0. -1.
         21    1    1    2  504  501  0.14622122732E+03 -0.27951782724E+03 -0.30142780177E+03  0.43631362887E+03  0.00000000000E+00 0.  1.
<mgrwt>
<rscale>  4 0.40113334E+03</rscale>
<asrwt>0</asrwt>
<pdfrwt beam="1">  1       21 0.97069036E-01 0.40113334E+03</pdfrwt>
<pdfrwt beam="2">  1       21 0.83813408E-01 0.40113334E+03</pdfrwt>
<totfact> 0.94515855E+02</totfact>
</mgrwt>
</event>
<event>
 5    0  0.1829809E+000  0.2750023E+03  0.7546771E-02  0.1098450E+00
         21   -1    0    0  502  501  0.00000000000E+00  0.00000000000E+00  0.19219610488E+03  0.19219610488E+03  0.00000000000E+00 0. -1.
         21   -1    0    0  503  502 -0.00000000000E+00 -0.00000000000E+00 -0.87289659723E+03  0.87289659723E+03  0.00000000000E+00 0. -1.
         25    1    1    2    0    0 -0.24102535412E+02  0.24376282104E+03  0.60352753105E+02  0.28154697644E+03  0.12500000000E+03 0.  0.
         21    1    1    2  503  504  0.79893265052E+01 -0.16255193314E+03 -0.58076246973E+03  0.60313514784E+03  0.00000000000E+00 0. -1.
         21    1    1    2  504  501  0.16113208907E+02 -0.81210887900E+02 -0.16029077572E+03  0.18041057783E+03  0.00000000000E+00 0. -1.
<mgrwt>
<rscale>  4 0.27500226E+03</rscale>
<asrwt>0</asrwt>
<pdfrwt beam="1">  1       21 0.29568631E-01 0.27500226E+03</pdfrwt>
<pdfrwt beam="2">  1       21 0.13429179E+00 0.27500226E+03</pdfrwt>
<totfact> 0.41119908E+03</totfact>
</mgrwt>
</event>
