<event>
 5    0  0.1856407E+000  0.2545306E+03  0.7546771E-02  0.1110475E+00
         21   -1    0    0  502  501  0.00000000000E+00  0.00000000000E+00  0.47716109237E+03  0.47716109237E+03  0.00000000000E+00 0. -1.
         21   -1    0    0  503  502 -0.00000000000E+00 -0.00000000000E+00 -0.13101617981E+03  0.13101617981E+03  0.00000000000E+00 0.  1.
         25    1    1    2    0    0 -0.15576827715E+03 -0.15778805472E+03  0.24338996875E+03  0.35217112781E+03  0.12500000000E+03 0.  0.
         21    1    1    2  503  504  0.12043577674E+03  0.13474457532E+03  0.48191269131E+02  0.18703816540E+03  0.00000000000E+00 0.  1.
         21    1    1    2  504  501  0.35332500416E+02  0.23043479395E+02  0.54563674679E+02  0.68967978967E+02  0.00000000000E+00 0.  1.
<mgrwt>
<rscale>  4 0.25453060E+03</rscale>
<asrwt>0</asrwt>
<pdfrwt beam="1">  1       21 0.73409398E-01 0.25453060E+03</pdfrwt>
<pdfrwt beam="2">  1       21 0.20156336E-01 0.25453060E+03</pdfrwt>
<totfact> 0.36829530E+04</totfact>
</mgrwt>
</event>
<event>
 5    0  0.1856407E+000  0.2947649E+03  0.7546771E-02  0.1087887E+00
         21   -1    0    0  502  501  0.00000000000E+00  0.00000000000E+00  0.13809653088E+03  0.13809653088E+03  0.00000000000E+00 0.  1.
         21   -1    0    0  503  502 -0.00000000000E+00 -0.00000000000E+00 -0.61703071874E+03  0.61703071874E+03  0.00000000000E+00 0.  1.
         25    1    1    2    0    0  0.23505550766E+03  0.12653173921E+03 -0.16160397726E+03  0.33615802560E+03  0.12500000000E+03 0.  0.
         21    1    1    2  503  504 -0.10014773520E+03 -0.32925993561E+02 -0.90465669519E+02  0.13891625995E+03  0.00000000000E+00 0. -1.
         21    1    1    2  504  501 -0.13490777245E+03 -0.93605745646E+02 -0.22686454108E+03  0.28005296407E+03  0.00000000000E+00 0.  1.
<mgrwt>
<rscale>  4 0.29476494E+03</rscale>
<asrwt>0</asrwt>
<pdfrwt beam="1">  1       21 0.21245620E-01 0.29476494E+03</pdfrwt>
<pdfrwt beam="2">  1       21 0.94927804E-01 0.29476494E+03</pdfrwt>
<totfact> 0.18136838E+04</totfact>
</mgrwt>
</event>
<event>
 5    0  0.1856407E+000  0.2416317E+03  0.7546771E-02  0.1118711E+00
         21   -1    0    0  502  501  0.00000000000E+00  0.00000000000E+00  0.13773721102E+04  0.13773721102E+04  0.00000000000E+00 0.  1.
         21   -1    0    0  503  502 -0.00000000000E+00 -0.00000000000E+00 -0.57646500854E+02  0.57646500854E+02  0.00000000000E+00 0.  1.
         25    1    1    2    0    0  0.17903548768E+03  0.10347557424E+03  0.11129287037E+04  0.11388574098E+04  0.12500000000E+03 0.  0.
         21    1    1    2  503  504 -0.12810198539E+03 -0.65870580515E+02  0.11339308065E+03  0.18332223754E+03  0.00000000000E+00 0.  1.
         21    1    1    2  504  501 -0.50933502295E+02 -0.37604993724E+02  0.93403824956E+02  0.11283896368E+03  0.00000000000E+00 0.  1.
<mgrwt>
<rscale>  4 0.24163175E+03</rscale>
<asrwt>0</asrwt>
<pdfrwt beam="1">  1       21 0.21190338E+00 0.24163175E+03</pdfrwt>
<pdfrwt beam="2">  1       21 0.88686935E-02 0.24163175E+03</pdfrwt>
<totfact> 0.10890129E+04</totfact>
</mgrwt>
</event>
<event>
 5    0  0.1856407E+000  0.2371630E+03  0.7546771E-02  0.1121697E+00
         21   -1    0    0  502  501  0.00000000000E+00  0.00000000000E+00  0.35407853567E+03  0.35407853567E+03  0.00000000000E+00 0. -1.
         21   -1    0    0  503  502 -0.00000000000E+00 -0.00000000000E+00 -0.50046654246E+03  0.50046654246E+03  0.00000000000E+00 0. -1.
         25    1    1    2    0    0  0.48349450124E+02  0.22766980257E+03  0.21229898334E+03  0.33892044296E+03  0.12500000000E+03 0.  0.
         21    1    1    2  503  504  0.94307136887E+02 -0.12943644263E+03 -0.28599604434E+03  0.32778249820E+03  0.00000000000E+00 0. -1.
         21    1    1    2  504  501 -0.14265658701E+03 -0.98233359945E+02 -0.72690945790E+02  0.18784213698E+03  0.00000000000E+00 0. -1.
<mgrwt>
<rscale>  4 0.23716298E+03</rscale>
<asrwt>0</asrwt>
<pdfrwt beam="1">  1       21 0.54473621E-01 0.23716298E+03</pdfrwt>
<pdfrwt beam="2">  1       21 0.76994853E-01 0.23716298E+03</pdfrwt>
<totfact> 0.46187853E+03</totfact>
</mgrwt>
</event>
<event>
 5    0  0.1856407E+000  0.2437893E+03  0.7546771E-02  0.1117294E+00
         21   -1    0    0  502  501  0.00000000000E+00  0.00000000000E+00  0.18814726269E+03  0.18814726269E+03  0.00000000000E+00 0.  1.
         21   -1    0    0  503  502 -0.00000000000E+00 -0.00000000000E+00 -0.45085967531E+03  0.45085967531E+03  0.00000000000E+00 0.  1.
         25    1    1    2    0    0 -0.20810887766E+03  0.65373300327E+02 -0.82157091660E+01  0.25154616123E+03  0.12500000000E+03 0.  0.
         21    1    1    2  503  504  0.20437158662E+03  0.14598304650E+02 -0.14160893663E+03  0.24906614955E+03  0.00000000000E+00 0.  1.
         21    1    1    2  504  501  0.37372910341E+01 -0.79971604977E+02 -0.11288776682E+03  0.13839462722E+03  0.00000000000E+00 0.  1.
<mgrwt>
<rscale>  4 0.24378933E+03</rscale>
<asrwt>0</asrwt>
<pdfrwt beam="1">  1       21 0.28945733E-01 0.24378933E+03</pdfrwt>
<pdfrwt beam="2">  1       21 0.69363026E-01 0.24378933E+03</pdfrwt>
<totfact> 0.20998440E+04</totfact>
</mgrwt>
</event>
<event>
 5    0  0.1856407E+000  0.4266731E+03  0.7546771E-02  0.1034916E+00
         21   -1    0    0  502  501  0.00000000000E+00  0.00000000000E+00  0.33510502194E+03  0.33510502194E+03  0.00000000000E+00 0. -1.
         21   -1    0    0  503  502 -0.00000000000E+00 -0.00000000000E+00 -0.53616520951E+03  0.53616520951E+03  0.00000000000E+00 0.  1.
         25    1    1    2    0    0 -0.39999750103E+03 -0.80168353563E+02 -0.61697391295E+02  0.43111081387E+03  0.12500000000E+03 0.  0.
         21    1    1    2  503  504  0.34984340405E+03  0.54124534629E+02 -0.90350081817E+02  0.36535326725E+03  0.00000000000E+00 0.  1.
         21    1    1    2  504  501  0.50154096984E+02  0.26043818934E+02 -0.49012714461E+02  0.74806150335E+02  0.00000000000E+00 0.  1.
<mgrwt>
<rscale>  4 0.42667314E+03</rscale>
<asrwt>0</asrwt>
<pdfrwt beam="1">  1       21 0.51554619E-01 0.42667314E+03</pdfrwt>
<pdfrwt beam="2">  1       21 0.82486955E-01 0.42667314E+03</pdfrwt>
<totfact> 0.40492175E+03</totfact>
</mgrwt>
</event>
<event>
 5    0  0.2389444E+000  0.2355371E+03  0.7546771E-02  0.1122802E+00
         21   -1    0    0  502  501  0.00000000000E+00  0.00000000000E+00  0.17080303507E+03  0.17080303507E+03  0.00000000000E+00 0. -1.
         21   -1    0    0  503  502 -0.00000000000E+00 -0.00000000000E+00 -0.34059769648E+03  0.34059769648E+03  0.00000000000E+00 0. -1.
         25    1    1    2    0    0  0.13764545422E+03  0.16473032382E+03 -0.67758210864E+02  0.25748500110E+03  0.12500000000E+03 0.  0.
         21    1    1    2  503  504 -0.14389582055E+03 -0.12599255010E+03 -0.96701570405E+02  0.21431594335E+03  0.00000000000E+00 0. -1.
         21    1    1    2  504  501  0.62503663347E+01 -0.38737773714E+02 -0.53348801414E+01  0.39599787092E+02  0.00000000000E+00 0. -1.
<mgrwt>
<rscale>  4 0.23553714E+03</rscale>
<asrwt>0</asrwt>
<pdfrwt beam="1">  1       21 0.26277390E-01 0.23553714E+03</pdfrwt>
<pdfrwt beam="2">  1       21 0.52399645E-01 0.23553714E+03</pdfrwt>
<totfact> 0.46619018E+04</totfact>
</mgrwt>
</event>
<event>
 5    0  0.1856407E+000  0.2404190E+03  0.7546771E-02  0.1119514E+00
         21   -1    0    0  502  501  0.00000000000E+00  0.00000000000E+00  0.88545266555E+02  0.88545266555E+02  0.00000000000E+00 0. -1.
         21   -1    0    0  503  502 -0.00000000000E+00 -0.00000000000E+00 -0.81318211918E+03  0.81318211918E+03  0.00000000000E+00 0. -1.
         25    1    1    2    0    0  0.10274987457E+03 -0.17735865991E+03 -0.23164914507E+03  0.33361648248E+03  0.12500000000E+03 0.  0.
         21    1    1    2  503  504 -0.41132325861E+02  0.20842064112E+03 -0.35191155095E+03  0.41106297762E+03  0.00000000000E+00 0. -1.
         21    1    1    2  504  501 -0.61617548705E+02 -0.31061981216E+02 -0.14107615661E+03  0.15704792564E+03  0.00000000000E+00 0.  1.
<mgrwt>
<rscale>  4 0.24041901E+03</rscale>
<asrwt>0</asrwt>
<pdfrwt beam="1">  1       21 0.13622349E-01 0.24041901E+03</pdfrwt>
<pdfrwt beam="2">  1       21 0.12510494E+00 0.24041901E+03</pdfrwt>
<totfact> 0.21623131E+04</totfact>
</mgrwt>
</event>
<event>
 5    0  0.1856407E+000  0.2415889E+03  0.7546771E-02  0.1118739E+00
         21   -1    0    0  502  501  0.00000000000E+00  0.00000000000E+00  0.16627001118E+04  0.16627001118E+04  0.00000000000E+00 0. -1.
         21   -1    0    0  503  502 -0.00000000000E+00 -0.00000000000E+00 -0.18399657778E+03  0.18399657778E+03  0.00000000000E+00 0. -1.
         25    1    1    2    0    0 -0.60537795060E+02  0.19767494557E+03  0.15832617479E+04  0.16015876408E+04  0.12500000000E+03 0.  0.
         21    1    1    2  503  504  0.36500900235E+02 -0.16390573426E+03 -0.47361748379E+02  0.17447217729E+03  0.00000000000E+00 0. -1.
         21    1    1    2  504  501  0.24036894825E+02 -0.33769211318E+02 -0.57196465518E+02  0.70636871488E+02  0.00000000000E+00 0. -1.
<mgrwt>
<rscale>  4 0.24158893E+03</rscale>
<asrwt>0</asrwt>
<pdfrwt beam="1">  1       21 0.25580001E+00 0.24158893E+03</pdfrwt>
<pdfrwt beam="2">  1       21 0.28307167E-01 0.24158893E+03</pdfrwt>
<totfact> 0.69277720E+02</totfact>
</mgrwt>
</event>
<event>
 5    0  0.1856407E+000  0.3955446E+03  0.7546771E-02  0.1045333E+00
         21   -1    0    0  502  501  0.00000000000E+00  0.00000000000E+00  0.55093065229E+03  0.55093065229E+03  0.00000000000E+00 0.  1.
         21   -1    0    0  503  502 -0.00000000000E+00 -0.00000000000E+00 -0.10929617705E+04  0.10929617705E+04  0.00000000000E+00 0. -1.
         25    1    1    2    0    0 -0.70300199388E+02 -0.37048395154E+03  0.42613218377E+03  0.58259258014E+03  0.12500000000E+03 0.  0.
         21    1    1    2  503  504  0.10989354842E+03  0.33798781194E+03 -0.93502869023E+03  0.10002954586E+04  0.00000000000E+00 0. -1.
         21    1    1    2  504  501 -0.39593349027E+02  0.32496139600E+02 -0.33134611788E+02  0.61004384059E+02  0.00000000000E+00 0.  1.
<mgrwt>
<rscale>  4 0.39554459E+03</rscale>
<asrwt>0</asrwt>
<pdfrwt beam="1">  1       21 0.84758563E-01 0.39554459E+03</pdfrwt>
<pdfrwt beam="2">  1       21 0.16814796E+00 0.39554459E+03</pdfrwt>
<totfact> 0.22285955E+02</totfact>
</mgrwt>
</event>
<event>
 5    0  0.1856407E+000  0.3360276E+03  0.7546771E-02  0.1068501E+00
         21   -1    0    0  502  501  0.00000000000E+00  0.00000000000E+00  0.19781475949E+03  0.19781475949E+03  0.00000000000E+00 0. -1.
         21   -1    0    0  503  502 -0.00000000000E+00 -0.00000000000E+00 -0.57184447993E+03  0.57184447993E+03  0.00000000000E+00 0. -1.
         25    1    1    2    0    0 -0.81604464450E+02 -0.30104856274E+03 -0.27237256832E+03  0.43255212601E+03  0.12500000000E+03 0.  0.
         21    1    1    2  503  504  0.40911350590E+02  0.22709662530E+03 -0.10297898838E+03  0.25268812374E+03  0.00000000000E+00 0. -1.
         21    1    1    2  504  501  0.40693113860E+02  0.73951937437E+02  0.13218362583E+01  0.84418989673E+02  0.00000000000E+00 0. -1.
<mgrwt>
<rscale>  4 0.33602757E+03</rscale>
<asrwt>0</asrwt>
<pdfrwt beam="1">  1       21 0.30433040E-01 0.33602757E+03</pdfrwt>
<pdfrwt beam="2">  1       21 0.87976073E-01 0.33602757E+03</pdfrwt>
<totfact> 0.10636390E+04</totfact>
</mgrwt>
</event>
