<event>
 5    0  0.1911311E+001  0.4741133E+03  0.7546771E-02  0.1020766E+00
         21   -1    0    0  504  501  0.00000000000E+00  0.00000000000E+00  0.12584509029E+04  0.12584509029E+04  0.00000000000E+00 0.  1.
         21   -1    0    0  503  502 -0.00000000000E+00 -0.00000000000E+00 -0.22869799332E+03  0.22869799332E+03  0.00000000000E+00 0. -1.
         25    1    1    2    0    0 -0.73664990469E+02  0.44196614588E+03  0.20425826308E+03  0.50804236335E+03  0.12500000000E+03 0.  0.
         21    1    1    2  503  501  0.26256871841E+02  0.35767998440E+02  0.48257657112E+02  0.65555888379E+02  0.00000000000E+00 0.  1.
         21    1    1    2  504  502  0.47408118628E+02 -0.47773414432E+03  0.77723698941E+03  0.91355064450E+03  0.00000000000E+00 0.  1.
<mgrwt>
<rscale>  4 0.47411328E+03</rscale>
<asrwt>0</asrwt>
<pdfrwt beam="1">  1       21 0.19360783E+00 0.47411328E+03</pdfrwt>
<pdfrwt beam="2">  1       21 0.35184308E-01 0.47411328E+03</pdfrwt>
<totfact> 0.95054175E+02</totfact>
</mgrwt>
</event>
<event>
 5    0  0.1911311E+001  0.3109015E+03  0.7546771E-02  0.1079915E+00
         21   -1    0    0  502  501  0.00000000000E+00  0.00000000000E+00  0.16795715802E+04  0.16795715802E+04  0.00000000000E+00 0. -1.
         21   -1    0    0  504  502 -0.00000000000E+00 -0.00000000000E+00 -0.20942183805E+03  0.20942183805E+03  0.00000000000E+00 0.  1.
         25    1    1    2    0    0  0.18349513662E+03 -0.25856894554E+03  0.91061906413E+03  0.97230676472E+03  0.12500000000E+03 0.  0.
         21    1    1    2  503  501 -0.44408430149E+02  0.14397890408E+02  0.62615276742E+03  0.62789067207E+03  0.00000000000E+00 0.  1.
         21    1    1    2  504  503 -0.13908670647E+03  0.24417105513E+03 -0.66622089446E+02  0.28879598142E+03  0.00000000000E+00 0.  1.
<mgrwt>
<rscale>  4 0.31090148E+03</rscale>
<asrwt>0</asrwt>
<pdfrwt beam="1">  1       21 0.25839562E+00 0.31090148E+03</pdfrwt>
<pdfrwt beam="2">  1       21 0.32218745E-01 0.31090148E+03</pdfrwt>
<totfact> 0.48647974E+02</totfact>
</mgrwt>
</event>
<event>
 5    0  0.1911311E+001  0.1714470E+03  0.7546771E-02  0.1176347E+00
         21   -1    0    0  502  501  0.00000000000E+00  0.00000000000E+00  0.15540945188E+03  0.15540945188E+03  0.00000000000E+00 0.  1.
         21   -1    0    0  504  502 -0.00000000000E+00 -0.00000000000E+00 -0.68265438140E+03  0.68265438140E+03  0.00000000000E+00 0.  1.
         25    1    1    2    0    0 -0.19452256242E+02 -0.20259210616E+03 -0.36353354201E+03  0.43497538772E+03  0.12500000000E+03 0.  0.
         21    1    1    2  503  501  0.37513283861E+02  0.10512864092E+03  0.81758371383E+02  0.13836079249E+03  0.00000000000E+00 0.  1.
         21    1    1    2  504  503 -0.18061027619E+02  0.97463465232E+02 -0.24546975889E+03  0.26472765307E+03  0.00000000000E+00 0.  1.
<mgrwt>
<rscale>  4 0.17144704E+03</rscale>
<asrwt>0</asrwt>
<pdfrwt beam="1">  1       21 0.23909146E-01 0.17144704E+03</pdfrwt>
<pdfrwt beam="2">  1       21 0.10502375E+00 0.17144704E+03</pdfrwt>
<totfact> 0.12222305E+04</totfact>
</mgrwt>
</event>
