<event>
 5    0  0.3364562E+000  0.2748187E+03  0.7546771E-02  0.1098553E+00
         21   -1    0    0  502  501  0.00000000000E+00  0.00000000000E+00  0.37575851149E+03  0.37575851149E+03  0.00000000000E+00 0.  1.
         21   -1    0    0  503  502 -0.00000000000E+00 -0.00000000000E+00 -0.23338709370E+03  0.23338709370E+03  0.00000000000E+00 0. -1.
         25    1    1    2    0    0 -0.44934853398E+02 -0.24058507393E+03  0.21749531423E+03  0.35047044178E+03  0.12500000000E+03 0.  0.
         21    1    1    2  503  504  0.51343125844E+02  0.21680168521E+03 -0.69783939615E+02  0.23347138049E+03  0.00000000000E+00 0. -1.
         21    1    1    2  504  501 -0.64082724458E+01  0.23783388725E+02 -0.53399568156E+01  0.25203782925E+02  0.00000000000E+00 0.  1.
<mgrwt>
<rscale>  4 0.27481870E+03</rscale>
<asrwt>0</asrwt>
<pdfrwt beam="1">  1       21 0.57809002E-01 0.27481870E+03</pdfrwt>
<pdfrwt beam="2">  1       21 0.35905707E-01 0.27481870E+03</pdfrwt>
<totfact> 0.20113464E+04</totfact>
</mgrwt>
</event>
<event>
 5    0  0.1856407E+000  0.2404429E+03  0.7546771E-02  0.1119498E+00
         21   -1    0    0  502  501  0.00000000000E+00  0.00000000000E+00  0.33784521407E+03  0.33784521407E+03  0.00000000000E+00 0. -1.
         21   -1    0    0  503  502 -0.00000000000E+00 -0.00000000000E+00 -0.40681166160E+03  0.40681166160E+03  0.00000000000E+00 0. -1.
         25    1    1    2    0    0  0.16531371388E+03 -0.12564882871E+03  0.24917495224E+03  0.34760524878E+03  0.12500000000E+03 0.  0.
         21    1    1    2  503  504 -0.13937445864E+03  0.13654494103E+03 -0.21586815825E+03  0.29097907552E+03  0.00000000000E+00 0. -1.
         21    1    1    2  504  501 -0.25939255244E+02 -0.10896112314E+02 -0.10227324151E+03  0.10607255137E+03  0.00000000000E+00 0.  1.
<mgrwt>
<rscale>  4 0.24044292E+03</rscale>
<asrwt>0</asrwt>
<pdfrwt beam="1">  1       21 0.51976187E-01 0.24044292E+03</pdfrwt>
<pdfrwt beam="2">  1       21 0.62586409E-01 0.24044292E+03</pdfrwt>
<totfact> 0.80544970E+03</totfact>
</mgrwt>
</event>
<event>
 5    0  0.1856407E+000  0.3301093E+03  0.7546771E-02  0.1071088E+00
         21   -1    0    0  502  501  0.00000000000E+00  0.00000000000E+00  0.17733212496E+03  0.17733212496E+03  0.00000000000E+00 0. -1.
         21   -1    0    0  503  502 -0.00000000000E+00 -0.00000000000E+00 -0.11186093202E+04  0.11186093202E+04  0.00000000000E+00 0.  1.
         25    1    1    2    0    0  0.13033356218E+02 -0.30524958906E+03 -0.28113523656E+02  0.33130431662E+03  0.12500000000E+03 0.  0.
         21    1    1    2  503  504  0.16921620790E+02  0.62299435225E+02 -0.23241172373E+03  0.24121104910E+03  0.00000000000E+00 0.  1.
         21    1    1    2  504  501 -0.29954977008E+02  0.24295015384E+03 -0.68075194783E+03  0.72342607941E+03  0.00000000000E+00 0.  1.
<mgrwt>
<rscale>  4 0.33010935E+03</rscale>
<asrwt>0</asrwt>
<pdfrwt beam="1">  1       21 0.27281865E-01 0.33010935E+03</pdfrwt>
<pdfrwt beam="2">  1       21 0.17209374E+00 0.33010935E+03</pdfrwt>
<totfact> 0.23882912E+03</totfact>
</mgrwt>
</event>
<event>
 5    0  0.1856407E+000  0.2742398E+03  0.7546771E-02  0.1098877E+00
         21   -1    0    0  502  501  0.00000000000E+00  0.00000000000E+00  0.93401620491E+03  0.93401620491E+03  0.00000000000E+00 0. -1.
         21   -1    0    0  503  502 -0.00000000000E+00 -0.00000000000E+00 -0.81956581250E+02  0.81956581250E+02  0.00000000000E+00 0. -1.
         25    1    1    2    0    0 -0.23328130505E+03 -0.71848988233E+02  0.29777165503E+03  0.40481527014E+03  0.12500000000E+03 0.  0.
         21    1    1    2  503  504  0.14644391887E+03  0.83099857999E+02  0.33232085178E+03  0.37254336164E+03  0.00000000000E+00 0. -1.
         21    1    1    2  504  501  0.86837386186E+02 -0.11250869766E+02  0.22196711685E+03  0.23861415438E+03  0.00000000000E+00 0. -1.
<mgrwt>
<rscale>  4 0.27423976E+03</rscale>
<asrwt>0</asrwt>
<pdfrwt beam="1">  1       21 0.14369479E+00 0.27423976E+03</pdfrwt>
<pdfrwt beam="2">  1       21 0.12608705E-01 0.27423976E+03</pdfrwt>
<totfact> 0.17117234E+04</totfact>
</mgrwt>
</event>
<event>
 5    0  0.1856407E+000  0.2085726E+03  0.7546771E-02  0.1142701E+00
         21   -1    0    0  502  501  0.00000000000E+00  0.00000000000E+00  0.52109199561E+03  0.52109199561E+03  0.00000000000E+00 0.  1.
         21   -1    0    0  503  502 -0.00000000000E+00 -0.00000000000E+00 -0.35940202793E+03  0.35940202793E+03  0.00000000000E+00 0. -1.
         25    1    1    2    0    0  0.19639145638E+03  0.46461785563E+02  0.43554067097E+03  0.49603324256E+03  0.12500000000E+03 0.  0.
         21    1    1    2  503  504 -0.15268850676E+03 -0.63709680114E+02 -0.29075303251E+03  0.33452956424E+03  0.00000000000E+00 0. -1.
         21    1    1    2  504  501 -0.43702949628E+02  0.17247894551E+02  0.16902329220E+02  0.49931216746E+02  0.00000000000E+00 0. -1.
<mgrwt>
<rscale>  4 0.20857256E+03</rscale>
<asrwt>0</asrwt>
<pdfrwt beam="1">  1       21 0.80167999E-01 0.20857256E+03</pdfrwt>
<pdfrwt beam="2">  1       21 0.55292620E-01 0.20857256E+03</pdfrwt>
<totfact> 0.41688875E+03</totfact>
</mgrwt>
</event>
<event>
 5    0  0.2523406E+000  0.2791750E+03  0.7546771E-02  0.1096140E+00
         21   -1    0    0  502  501  0.00000000000E+00  0.00000000000E+00  0.57237959871E+02  0.57237959871E+02  0.00000000000E+00 0. -1.
         21   -1    0    0  503  502 -0.00000000000E+00 -0.00000000000E+00 -0.18016940317E+04  0.18016940317E+04  0.00000000000E+00 0. -1.
         25    1    1    2    0    0 -0.23060310863E+03  0.95581717971E+02 -0.38933920716E+03  0.47908629364E+03  0.12500000000E+03 0.  0.
         21    1    1    2  503  504  0.30706671205E+02 -0.49283170451E+01 -0.77417933480E+02  0.83430955824E+02  0.00000000000E+00 0. -1.
         21    1    1    2  504  501  0.19989643742E+03 -0.90653400926E+02 -0.12776989312E+04  0.12964147421E+04  0.00000000000E+00 0. -1.
<mgrwt>
<rscale>  4 0.27917496E+03</rscale>
<asrwt>0</asrwt>
<pdfrwt beam="1">  1       21 0.88058402E-02 0.27917496E+03</pdfrwt>
<pdfrwt beam="2">  1       21 0.27718369E+00 0.27917496E+03</pdfrwt>
<totfact> 0.43249801E+03</totfact>
</mgrwt>
</event>
<event>
 5    0  0.1856407E+000  0.3210619E+03  0.7546771E-02  0.1075162E+00
         21   -1    0    0  502  501  0.00000000000E+00  0.00000000000E+00  0.12797333820E+04  0.12797333820E+04  0.00000000000E+00 0. -1.
         21   -1    0    0  503  502 -0.00000000000E+00 -0.00000000000E+00 -0.25336280816E+03  0.25336280816E+03  0.00000000000E+00 0. -1.
         25    1    1    2    0    0  0.30032007529E+03  0.19159144748E+02  0.11143417678E+04  0.11610089560E+04  0.12500000000E+03 0.  0.
         21    1    1    2  503  504 -0.24474786793E+03 -0.54439973629E+02 -0.14091256329E+03  0.28761359509E+03  0.00000000000E+00 0. -1.
         21    1    1    2  504  501 -0.55572207353E+02  0.35280828881E+02  0.52941369400E+02  0.84473639146E+02  0.00000000000E+00 0.  1.
<mgrwt>
<rscale>  4 0.32106190E+03</rscale>
<asrwt>0</asrwt>
<pdfrwt beam="1">  1       21 0.19688205E+00 0.32106190E+03</pdfrwt>
<pdfrwt beam="2">  1       21 0.38978894E-01 0.32106190E+03</pdfrwt>
<totfact> 0.79688459E+02</totfact>
</mgrwt>
</event>
<event>
 5    0  0.1856407E+000  0.3167965E+03  0.7546771E-02  0.1077133E+00
         21   -1    0    0  502  501  0.00000000000E+00  0.00000000000E+00  0.38171177691E+03  0.38171177691E+03  0.00000000000E+00 0.  1.
         21   -1    0    0  503  502 -0.00000000000E+00 -0.00000000000E+00 -0.52416017287E+03  0.52416017287E+03  0.00000000000E+00 0.  1.
         25    1    1    2    0    0  0.66265058630E+02 -0.32624382104E+03 -0.22138185835E+03  0.41888067032E+03  0.12500000000E+03 0.  0.
         21    1    1    2  503  504  0.87558490259E+02  0.86341020159E+02 -0.92986327524E+02  0.15416782442E+03  0.00000000000E+00 0.  1.
         21    1    1    2  504  501 -0.15382354889E+03  0.23990280088E+03  0.17191978992E+03  0.33282345505E+03  0.00000000000E+00 0.  1.
<mgrwt>
<rscale>  4 0.31679653E+03</rscale>
<asrwt>0</asrwt>
<pdfrwt beam="1">  1       21 0.58724889E-01 0.31679653E+03</pdfrwt>
<pdfrwt beam="2">  1       21 0.80640026E-01 0.31679653E+03</pdfrwt>
<totfact> 0.33794775E+03</totfact>
</mgrwt>
</event>
<event>
 5    0  0.1856407E+000  0.2338245E+03  0.7546771E-02  0.1123976E+00
         21   -1    0    0  502  501  0.00000000000E+00  0.00000000000E+00  0.30126439548E+03  0.30126439548E+03  0.00000000000E+00 0. -1.
         21   -1    0    0  503  502 -0.00000000000E+00 -0.00000000000E+00 -0.64024926804E+03  0.64024926804E+03  0.00000000000E+00 0.  1.
         25    1    1    2    0    0  0.83518234048E+02 -0.18462867244E+03  0.21642563345E+03  0.32175782340E+03  0.12500000000E+03 0.  0.
         21    1    1    2  503  504 -0.56506285423E+02  0.36420763003E+02 -0.30805860528E+02  0.73948856062E+02  0.00000000000E+00 0. -1.
         21    1    1    2  504  501 -0.27011948625E+02  0.14820790944E+03 -0.52460464548E+03  0.54580698406E+03  0.00000000000E+00 0.  1.
<mgrwt>
<rscale>  4 0.23382451E+03</rscale>
<asrwt>0</asrwt>
<pdfrwt beam="1">  1       21 0.46348369E-01 0.23382451E+03</pdfrwt>
<pdfrwt beam="2">  1       21 0.98499887E-01 0.23382451E+03</pdfrwt>
<totfact> 0.36747338E+03</totfact>
</mgrwt>
</event>
<event>
 5    0  0.6548286E+000  0.2377798E+03  0.7546771E-02  0.1121281E+00
         21   -1    0    0  502  501  0.00000000000E+00  0.00000000000E+00  0.36853439207E+03  0.36853439207E+03  0.00000000000E+00 0.  1.
         21   -1    0    0  503  502 -0.00000000000E+00 -0.00000000000E+00 -0.22273291075E+03  0.22273291075E+03  0.00000000000E+00 0.  1.
         25    1    1    2    0    0 -0.22117015454E+03  0.66996809721E+02  0.19441335161E+03  0.32684302204E+03  0.12500000000E+03 0.  0.
         21    1    1    2  503  504  0.17659817509E+03 -0.83576762815E+02 -0.75892956124E+02  0.20959897785E+03  0.00000000000E+00 0.  1.
         21    1    1    2  504  501  0.44571979452E+02  0.16579953095E+02  0.27281085828E+02  0.54825302925E+02  0.00000000000E+00 0. -1.
<mgrwt>
<rscale>  4 0.23777980E+03</rscale>
<asrwt>0</asrwt>
<pdfrwt beam="1">  1       21 0.56697599E-01 0.23777980E+03</pdfrwt>
<pdfrwt beam="2">  1       21 0.34266602E-01 0.23777980E+03</pdfrwt>
<totfact> 0.23419237E+04</totfact>
</mgrwt>
</event>
<event>
 5    0  0.1856407E+000  0.2663443E+03  0.7546771E-02  0.1103390E+00
         21   -1    0    0  502  501  0.00000000000E+00  0.00000000000E+00  0.49762508691E+03  0.49762508691E+03  0.00000000000E+00 0.  1.
         21   -1    0    0  503  502 -0.00000000000E+00 -0.00000000000E+00 -0.15978762972E+03  0.15978762972E+03  0.00000000000E+00 0.  1.
         25    1    1    2    0    0  0.24310214987E+03 -0.18982353199E+02  0.11011679976E+03  0.29531287577E+03  0.12500000000E+03 0.  0.
         21    1    1    2  503  504 -0.22365456202E+03  0.40591696523E+02  0.13375846539E+03  0.26374301129E+03  0.00000000000E+00 0.  1.
         21    1    1    2  504  501 -0.19447587849E+02 -0.21609343324E+02  0.93962192039E+02  0.98356829579E+02  0.00000000000E+00 0.  1.
<mgrwt>
<rscale>  4 0.26634430E+03</rscale>
<asrwt>0</asrwt>
<pdfrwt beam="1">  1       21 0.76557705E-01 0.26634430E+03</pdfrwt>
<pdfrwt beam="2">  1       21 0.24582712E-01 0.26634430E+03</pdfrwt>
<totfact> 0.22859390E+04</totfact>
</mgrwt>
</event>
<event>
 5    0  0.1856407E+000  0.3545668E+03  0.7546771E-02  0.1060756E+00
         21   -1    0    0  502  501  0.00000000000E+00  0.00000000000E+00  0.35216264814E+03  0.35216264814E+03  0.00000000000E+00 0. -1.
         21   -1    0    0  503  502 -0.00000000000E+00 -0.00000000000E+00 -0.43845487923E+03  0.43845487923E+03  0.00000000000E+00 0. -1.
         25    1    1    2    0    0  0.32955169404E+03 -0.84092150371E+01  0.11650569081E+03  0.37131335814E+03  0.12500000000E+03 0.  0.
         21    1    1    2  503  504 -0.33069987759E+03  0.39311583809E+02 -0.19948468595E+03  0.38820348992E+03  0.00000000000E+00 0. -1.
         21    1    1    2  504  501  0.11481835526E+01 -0.30902368772E+02 -0.33132359505E+01  0.31100679312E+02  0.00000000000E+00 0. -1.
<mgrwt>
<rscale>  4 0.35456683E+03</rscale>
<asrwt>0</asrwt>
<pdfrwt beam="1">  1       21 0.54178869E-01 0.35456683E+03</pdfrwt>
<pdfrwt beam="2">  1       21 0.67454597E-01 0.35456683E+03</pdfrwt>
<totfact> 0.59127718E+03</totfact>
</mgrwt>
</event>
