<event>
 5    0  0.2159162E+000  0.2368112E+03  0.7546771E-02  0.1121936E+00
         21   -1    0    0  502  501  0.00000000000E+00  0.00000000000E+00  0.11323080823E+03  0.11323080823E+03  0.00000000000E+00 0. -1.
         21   -1    0    0  503  502 -0.00000000000E+00 -0.00000000000E+00 -0.86561998821E+03  0.86561998821E+03  0.00000000000E+00 0. -1.
         25    1    1    2    0    0  0.15144705105E+03 -0.13235688070E+03 -0.44835510147E+02  0.24101820701E+03  0.12500000000E+03 0.  0.
         21    1    1    2  503  504 -0.12496012648E+03  0.84039340043E+02 -0.45269146343E+03  0.47708196879E+03  0.00000000000E+00 0. -1.
         21    1    1    2  504  501 -0.26486924574E+02  0.48317540653E+02 -0.25486220640E+03  0.26075062063E+03  0.00000000000E+00 0. -1.
<mgrwt>
<rscale>  4 0.23681122E+03</rscale>
<asrwt>0</asrwt>
<pdfrwt beam="1">  1       21 0.17420124E-01 0.23681122E+03</pdfrwt>
<pdfrwt beam="2">  1       21 0.13317231E+00 0.23681122E+03</pdfrwt>
<totfact> 0.11776901E+04</totfact>
</mgrwt>
</event>
<event>
 5    0  0.2159162E+000  0.2930828E+03  0.7546771E-02  0.1088750E+00
         21   -1    0    0  502  501  0.00000000000E+00  0.00000000000E+00  0.17598732510E+03  0.17598732510E+03  0.00000000000E+00 0.  1.
         21   -1    0    0  503  502 -0.00000000000E+00 -0.00000000000E+00 -0.95907079616E+03  0.95907079616E+03  0.00000000000E+00 0.  1.
         25    1    1    2    0    0 -0.21820644702E+02 -0.26419004175E+03  0.12056258402E+02  0.29333065312E+03  0.12500000000E+03 0.  0.
         21    1    1    2  503  504 -0.25225963099E+02  0.53060777038E+02 -0.14096791943E+03  0.15272114976E+03  0.00000000000E+00 0. -1.
         21    1    1    2  504  501  0.47046607800E+02  0.21112926471E+03 -0.65417181003E+03  0.68900631838E+03  0.00000000000E+00 0.  1.
<mgrwt>
<rscale>  4 0.29308278E+03</rscale>
<asrwt>0</asrwt>
<pdfrwt beam="1">  1       21 0.27074973E-01 0.29308278E+03</pdfrwt>
<pdfrwt beam="2">  1       21 0.14754935E+00 0.29308278E+03</pdfrwt>
<totfact> 0.37755571E+03</totfact>
</mgrwt>
</event>
<event>
 5    0  0.2159162E+000  0.2461101E+03  0.7546771E-02  0.1115788E+00
         21   -1    0    0  502  501  0.00000000000E+00  0.00000000000E+00  0.53414622342E+03  0.53414622342E+03  0.00000000000E+00 0. -1.
         21   -1    0    0  503  502 -0.00000000000E+00 -0.00000000000E+00 -0.10590048079E+03  0.10590048079E+03  0.00000000000E+00 0.  1.
         25    1    1    2    0    0  0.19535198901E+03  0.82357621967E+02  0.30160659017E+03  0.38927716699E+03  0.12500000000E+03 0.  0.
         21    1    1    2  503  504 -0.19234989804E+02 -0.24280882118E+02  0.19372504732E+02  0.36535462345E+02  0.00000000000E+00 0.  1.
         21    1    1    2  504  501 -0.17611699921E+03 -0.58076739850E+02  0.10726664772E+03  0.21423407487E+03  0.00000000000E+00 0.  1.
<mgrwt>
<rscale>  4 0.24611009E+03</rscale>
<asrwt>0</asrwt>
<pdfrwt beam="1">  1       21 0.82176340E-01 0.24611009E+03</pdfrwt>
<pdfrwt beam="2">  1       21 0.16292382E-01 0.24611009E+03</pdfrwt>
<totfact> 0.42554140E+04</totfact>
</mgrwt>
</event>
<event>
 5    0  0.2306614E+000  0.2801872E+03  0.7546771E-02  0.1095587E+00
         21   -1    0    0  502  501  0.00000000000E+00  0.00000000000E+00  0.63774640320E+03  0.63774640320E+03  0.00000000000E+00 0. -1.
         21   -1    0    0  503  502 -0.00000000000E+00 -0.00000000000E+00 -0.14863721177E+03  0.14863721177E+03  0.00000000000E+00 0. -1.
         25    1    1    2    0    0 -0.22261291186E+03 -0.11542690565E+03  0.43587000487E+03  0.51815783330E+03  0.12500000000E+03 0.  0.
         21    1    1    2  503  504  0.81748652542E+02  0.89973243957E+01 -0.47947588128E+01  0.82381938256E+02  0.00000000000E+00 0. -1.
         21    1    1    2  504  501  0.14086425931E+03  0.10642958125E+03  0.58033945373E+02  0.18584384341E+03  0.00000000000E+00 0. -1.
<mgrwt>
<rscale>  4 0.28018722E+03</rscale>
<asrwt>0</asrwt>
<pdfrwt beam="1">  1       21 0.98114829E-01 0.28018722E+03</pdfrwt>
<pdfrwt beam="2">  1       21 0.22867264E-01 0.28018722E+03</pdfrwt>
<totfact> 0.14671904E+04</totfact>
</mgrwt>
</event>
<event>
 5    0  0.2159162E+000  0.2944013E+03  0.7546771E-02  0.1088073E+00
         21   -1    0    0  502  501  0.00000000000E+00  0.00000000000E+00  0.19248905004E+03  0.19248905004E+03  0.00000000000E+00 0.  1.
         21   -1    0    0  503  502 -0.00000000000E+00 -0.00000000000E+00 -0.10255232878E+04  0.10255232878E+04  0.00000000000E+00 0.  1.
         25    1    1    2    0    0  0.25680669272E+03  0.71396608873E+02  0.45525880714E+02  0.29790058576E+03  0.12500000000E+03 0.  0.
         21    1    1    2  503  504 -0.11279921020E+03 -0.50699209391E+02 -0.48508209802E+03  0.50059835545E+03  0.00000000000E+00 0.  1.
         21    1    1    2  504  501 -0.14400748252E+03 -0.20697399483E+02 -0.39347802051E+03  0.41951339667E+03  0.00000000000E+00 0.  1.
<mgrwt>
<rscale>  4 0.29440135E+03</rscale>
<asrwt>0</asrwt>
<pdfrwt beam="1">  1       21 0.29613700E-01 0.29440135E+03</pdfrwt>
<pdfrwt beam="2">  1       21 0.15777281E+00 0.29440135E+03</pdfrwt>
<totfact> 0.26436444E+03</totfact>
</mgrwt>
</event>
